
    -----------------------------------------------------------------------
          Psi4: An Open-Source Ab Initio Electronic Structure Package
                               Psi4 1.6 release

                         Git: Rev {HEAD} 77475b5 


    D. G. A. Smith, L. A. Burns, A. C. Simmonett, R. M. Parrish,
    M. C. Schieber, R. Galvelis, P. Kraus, H. Kruse, R. Di Remigio,
    A. Alenaizan, A. M. James, S. Lehtola, J. P. Misiewicz, M. Scheurer,
    R. A. Shaw, J. B. Schriber, Y. Xie, Z. L. Glick, D. A. Sirianni,
    J. S. O'Brien, J. M. Waldrop, A. Kumar, E. G. Hohenstein,
    B. P. Pritchard, B. R. Brooks, H. F. Schaefer III, A. Yu. Sokolov,
    K. Patkowski, A. E. DePrince III, U. Bozkaya, R. A. King,
    F. A. Evangelista, J. M. Turney, T. D. Crawford, C. D. Sherrill,
    J. Chem. Phys. 152(18) 184108 (2020). https://doi.org/10.1063/5.0006002

                            Additional Code Authors
    E. T. Seidl, C. L. Janssen, E. F. Valeev, M. L. Leininger,
    J. F. Gonthier, R. M. Richard, H. R. McAlexander, M. Saitow, X. Wang,
    P. Verma, M. H. Lechner, and A. Jiang

             Previous Authors, Complete List of Code Contributors,
                       and Citations for Specific Modules
    https://github.com/psi4/psi4/blob/master/codemeta.json
    https://github.com/psi4/psi4/graphs/contributors
    http://psicode.org/psi4manual/master/introduction.html#citing-psifour

    -----------------------------------------------------------------------


    Psi4 started on: Tuesday, 19 July 2022 02:52PM

    Process ID: 2754723
    Host:       sophon
    PSIDATADIR: /home/heepark/miniconda3/envs/geometric/share/psi4
    Memory:     500.0 MiB
    Threads:    1
    
  ==> Input File <==

--------------------------------------------------------------------------
molecule {
0 1
C       -1.42104800226902   -1.5632453984335217    0.0000000000
N        0.07459757258374447    0.0821504320373475    0.0000000000
H        1.3464504296852755    1.4810949663961743    0.0000000000
units bohr
}

set basis 6-31g
gradient('hf')
--------------------------------------------------------------------------

Scratch directory: /tmp/
gradient() will perform analytic gradient computation.

*** tstart() called on sophon
*** at Tue Jul 19 14:52:50 2022

   => Loading Basis Set <=

    Name: 6-31G
    Role: ORBITAL
    Keyword: BASIS
    atoms 1 entry C          line    87 file /home/heepark/miniconda3/envs/geometric/share/psi4/basis/6-31g.gbs 
    atoms 2 entry N          line   102 file /home/heepark/miniconda3/envs/geometric/share/psi4/basis/6-31g.gbs 
    atoms 3 entry H          line    26 file /home/heepark/miniconda3/envs/geometric/share/psi4/basis/6-31g.gbs 


         ---------------------------------------------------------
                                   SCF
               by Justin Turney, Rob Parrish, Andy Simmonett
                          and Daniel G. A. Smith
                              RHF Reference
                        1 Threads,    500 MiB Core
         ---------------------------------------------------------

  ==> Geometry <==

    Molecular point group: cs
    Full point group: C1v

    Geometry (in Bohr), charge = 0, multiplicity = 1:

       Center              X                  Y                   Z               Mass       
    ------------   -----------------  -----------------  -----------------  -----------------
         C           -0.000006312433     0.000000000000    -1.306262384752    12.000000000000
         N           -0.000006312433     0.000000000000     0.917312017985    14.003074004430
         H            0.000162868220     0.000000000000     2.807987947833     1.007825032230

  Running in cs symmetry.

  Rotational constants: A = 2727866641.13590  B =      1.49730  C =      1.49730 [cm^-1]
  Rotational constants: A = 81779384544233.53125  B =  44888.03284  C =  44888.03282 [MHz]
  Nuclear repulsion =   24.049232160587170

  Charge       = 0
  Multiplicity = 1
  Electrons    = 14
  Nalpha       = 7
  Nbeta        = 7

  ==> Algorithm <==

  SCF Algorithm Type is DF.
  DIIS enabled.
  MOM disabled.
  Fractional occupation disabled.
  Guess Type is SAD.
  Energy threshold   = 1.00e-08
  Density threshold  = 1.00e-08
  Integral threshold = 1.00e-12

  ==> Primary Basis <==

  Basis Set: 6-31G
    Blend: 6-31G
    Number of shells: 12
    Number of basis functions: 20
    Number of Cartesian functions: 20
    Spherical Harmonics?: false
    Max angular momentum: 1

   => Loading Basis Set <=

    Name: (6-31G AUX)
    Role: JKFIT
    Keyword: DF_BASIS_SCF
    atoms 1 entry C          line   121 file /home/heepark/miniconda3/envs/geometric/share/psi4/basis/cc-pvdz-jkfit.gbs 
    atoms 2 entry N          line   171 file /home/heepark/miniconda3/envs/geometric/share/psi4/basis/cc-pvdz-jkfit.gbs 
    atoms 3 entry H          line    51 file /home/heepark/miniconda3/envs/geometric/share/psi4/basis/cc-pvdz-jkfit.gbs 

  ==> Integral Setup <==

  DFHelper Memory: AOs need 0.001 GiB; user supplied 0.366 GiB. Using in-core AOs.

  ==> MemDFJK: Density-Fitted J/K Matrices <==

    J tasked:                   Yes
    K tasked:                   Yes
    wK tasked:                   No
    OpenMP threads:               1
    Memory [MiB]:               375
    Algorithm:                 Core
    Schwarz Cutoff:           1E-12
    Mask sparsity (%):       0.0000
    Fitting Condition:        1E-10

   => Auxiliary Basis Set <=

  Basis Set: (6-31G AUX)
    Blend: CC-PVDZ-JKFIT
    Number of shells: 57
    Number of basis functions: 187
    Number of Cartesian functions: 187
    Spherical Harmonics?: false
    Max angular momentum: 3

  Minimum eigenvalue in the overlap matrix is 8.1281664328E-03.
  Reciprocal condition number of the overlap matrix is 2.2737220956E-03.
    Using symmetric orthogonalization.

  ==> Pre-Iterations <==

  SCF Guess: Superposition of Atomic Densities via on-the-fly atomic UHF (no occupation information).

   -------------------------
    Irrep   Nso     Nmo    
   -------------------------
     A'        16      16 
     A"         4       4 
   -------------------------
    Total      20      20
   -------------------------

  ==> Iterations <==

                           Total Energy        Delta E     RMS |[F,P]|

   @DF-RHF iter SAD:   -92.00911665343769   -9.20091e+01   0.00000e+00 
   @DF-RHF iter   1:   -92.79774985049808   -7.88633e-01   1.05818e-02 DIIS/ADIIS
   @DF-RHF iter   2:   -92.81215650262965   -1.44067e-02   3.97782e-03 DIIS/ADIIS
   @DF-RHF iter   3:   -92.81381514361682   -1.65864e-03   1.74283e-03 DIIS/ADIIS
   @DF-RHF iter   4:   -92.81417451293427   -3.59369e-04   2.53284e-04 DIIS/ADIIS
   @DF-RHF iter   5:   -92.81418726974880   -1.27568e-05   4.06470e-05 DIIS
   @DF-RHF iter   6:   -92.81418782742210   -5.57673e-07   5.01511e-06 DIIS
   @DF-RHF iter   7:   -92.81418783322235   -5.80025e-09   8.68928e-07 DIIS
   @DF-RHF iter   8:   -92.81418783339100   -1.68654e-10   1.85326e-07 DIIS
   @DF-RHF iter   9:   -92.81418783339805   -7.04858e-12   1.35924e-08 DIIS
   @DF-RHF iter  10:   -92.81418783339808   -2.84217e-14   2.39552e-09 DIIS
  Energy and wave function converged.


  ==> Post-Iterations <==

    Orbital Energies [Eh]
    ---------------------

    Doubly Occupied:                                                      

       1Ap   -15.609351     2Ap   -11.318576     3Ap    -1.273157  
       4Ap    -0.870382     5Ap    -0.514147     1App   -0.514147  
       6Ap    -0.482571  

    Virtual:                                                              

       7Ap     0.191840     2App    0.191840     8Ap     0.214800  
       9Ap     0.491308    10Ap     0.737058     3App    0.782592  
      11Ap     0.782592    12Ap     0.852919    13Ap     0.995238  
       4App    0.995238    14Ap     1.240415    15Ap     1.494128  
      16Ap     1.710031  

    Final Occupation by Irrep:
             Ap   App 
    DOCC [     6,    1 ]

  @DF-RHF Final Energy:   -92.81418783339808

   => Energetics <=

    Nuclear Repulsion Energy =             24.0492321605871702
    One-Electron Energy =                -172.5621770755440423
    Two-Electron Energy =                  55.6987570815587958
    Total Energy =                        -92.8141878333980799

Computation Completed


Properties will be evaluated at   0.000000,   0.000000,   0.000000 [a0]

Properties computed using the SCF density matrix


 Multipole Moments:

 ------------------------------------------------------------------------------------
     Multipole            Electronic (a.u.)      Nuclear  (a.u.)        Total (a.u.)
 ------------------------------------------------------------------------------------

 L = 1.  Multiply by 2.5417464519 to convert [e a0] to [Debye]
 Dipole X            :          0.0000127            0.0000808            0.0000935
 Dipole Y            :          0.0000000            0.0000000            0.0000000
 Dipole Z            :         -0.3306964            1.3915978            1.0609013
 Magnitude           :                                                    1.0609013

 ------------------------------------------------------------------------------------

*** tstop() called on sophon at Tue Jul 19 14:52:50 2022
Module time:
	user time   =       0.28 seconds =       0.00 minutes
	system time =       0.01 seconds =       0.00 minutes
	total time  =          0 seconds =       0.00 minutes
Total time:
	user time   =       0.28 seconds =       0.00 minutes
	system time =       0.01 seconds =       0.00 minutes
	total time  =          0 seconds =       0.00 minutes

*** tstart() called on sophon
*** at Tue Jul 19 14:52:50 2022


         ------------------------------------------------------------
                                   SCF GRAD                          
                          Rob Parrish, Justin Turney,                
                       Andy Simmonett, and Alex Sokolov              
         ------------------------------------------------------------

  ==> Geometry <==

    Molecular point group: cs
    Full point group: C1v

    Geometry (in Bohr), charge = 0, multiplicity = 1:

       Center              X                  Y                   Z               Mass       
    ------------   -----------------  -----------------  -----------------  -----------------
         C           -0.000006312433     0.000000000000    -1.306262384752    12.000000000000
         N           -0.000006312433     0.000000000000     0.917312017985    14.003074004430
         H            0.000162868220     0.000000000000     2.807987947833     1.007825032230

  Nuclear repulsion =   24.049232160587170

  ==> Basis Set <==

  Basis Set: 6-31G
    Blend: 6-31G
    Number of shells: 12
    Number of basis functions: 20
    Number of Cartesian functions: 20
    Spherical Harmonics?: false
    Max angular momentum: 1

  ==> DFJKGrad: Density-Fitted SCF Gradients <==

    Gradient:                    1
    J tasked:                  Yes
    K tasked:                  Yes
    wK tasked:                  No
    OpenMP threads:              1
    Integrals threads:           1
    Memory [MiB]:              375
    Schwarz Cutoff:          1E-12
    Fitting Condition:       1E-10

   => Auxiliary Basis Set <=

  Basis Set: (6-31G AUX)
    Blend: CC-PVDZ-JKFIT
    Number of shells: 57
    Number of basis functions: 187
    Number of Cartesian functions: 187
    Spherical Harmonics?: false
    Max angular momentum: 3


  -Total Gradient:
     Atom            X                  Y                   Z
    ------   -----------------  -----------------  -----------------
       1        0.000001590153     0.000000000000    -0.025514189457
       2       -0.000005334362     0.000000000000     0.004570977455
       3        0.000003744209     0.000000000000     0.020943212002


*** tstop() called on sophon at Tue Jul 19 14:52:50 2022
Module time:
	user time   =       0.03 seconds =       0.00 minutes
	system time =       0.00 seconds =       0.00 minutes
	total time  =          0 seconds =       0.00 minutes
Total time:
	user time   =       0.31 seconds =       0.01 minutes
	system time =       0.01 seconds =       0.00 minutes
	total time  =          0 seconds =       0.00 minutes

    Psi4 stopped on: Tuesday, 19 July 2022 02:52PM
    Psi4 wall time for execution: 0:00:00.39

*** Psi4 exiting successfully. Buy a developer a beer!
