3    
Image 0/21, Energy =   -93.4092025797 (+13.416 kcal/mol)
C       -0.7519862184   -0.8272338399    0.0000000000
N        0.0394753354    0.0434721365    0.0000000000
H        0.7125108830    0.7837617034    0.0000000000
3    
Image 1/21, Energy =   -93.4060437774 (+15.398 kcal/mol)
C       -0.6692256162   -0.8605812899   -0.0000000000
N       -0.0885893396    0.1655568149   -0.0000000000
H        0.7578177067    0.6950328528   -0.0000000000
3    
Image 2/21, Energy =   -93.3976607267 (+20.659 kcal/mol)
C       -0.5493059482   -0.8680247361   -0.0000000000
N       -0.2002040983    0.2684440980    0.0000000000
H        0.7494948568    0.5995896899    0.0000000000
3    
Image 3/21, Energy =   -93.3922646459 (+24.045 kcal/mol)
C       -0.4708003894   -0.8684655616    0.0000000000
N       -0.2539708358    0.3065074324    0.0000000000
H        0.7247563520    0.5619669478    0.0000000000
3    
Image 4/21, Energy =   -93.3828333966 (+29.963 kcal/mol)
C       -0.3351164199   -0.8552978873    0.0000000000
N       -0.3424794323    0.3510265046    0.0000000000
H        0.6775843906    0.5042814229   -0.0000000000
3    
Image 5/21, Energy =   -93.3732802096 (+35.958 kcal/mol)
C       -0.1981843581   -0.8117317387    0.0000000000
N       -0.4365386347    0.3700917759   -0.0000000000
H        0.6347172438    0.4416512499   -0.0000000000
3    
Image 6/21, Energy =   -93.3635143281 (+42.086 kcal/mol)
C       -0.0982815184   -0.7441262517   -0.0000000000
N       -0.5377488765    0.3799848152   -0.0000000000
H        0.6360253019    0.3641545527   -0.0000000000
3    
Image 7/21, Energy =   -93.3561022943 (+46.737 kcal/mol)
C       -0.0460857640   -0.6772003165   -0.0000000000
N       -0.6409894432    0.3667555295   -0.0000000000
H        0.6870681393    0.3104633815   -0.0000000000
3    
Image 8/21, Energy =   -93.3568980432 (+46.238 kcal/mol)
C       -0.0105585513   -0.6014451923   -0.0000000000
N       -0.7406496992    0.3381677564    0.0000000000
H        0.7511979269    0.2633030327    0.0000000000
3    
Image 9/21, Energy =   -93.3742825392 (+35.329 kcal/mol)
C        0.0089792398   -0.4862524925   -0.0000000000
N       -0.8700935107    0.2944647975   -0.0000000000
H        0.8611244340    0.1918143366   -0.0000000000
3    
Image 10/21, Energy =   -93.4055473864 (+15.710 kcal/mol)
C        0.0285187950   -0.3180833410   -0.0000000000
N       -1.0159639592    0.1836405178   -0.0000000000
H        0.9874633824    0.1344733398    0.0000000000
3    
Image 11/21, Energy =   -93.4185737589 (+7.536 kcal/mol)
C        0.0409055512   -0.2207251167    0.0000000000
N       -1.0771522312    0.0714764016   -0.0000000000
H        1.0362547239    0.1492803206    0.0000000000
3    
Image 12/21, Energy =   -93.4274123301 (+1.989 kcal/mol)
C        0.0495967033   -0.1075625327    0.0000000000
N       -1.1032747856   -0.1495398613   -0.0000000000
H        1.0536608753    0.2571304288    0.0000000000
3    
Image 13/21, Energy =   -93.4284118523 (+1.362 kcal/mol)
C        0.0497011737   -0.0867707375    0.0000000000
N       -1.0995128474   -0.2048531256    0.0000000000
H        1.0497909910    0.2916465602   -0.0000000000
3    
Image 14/21, Energy =   -93.4298527138 (+0.458 kcal/mol)
C        0.0455909382   -0.0410389818   -0.0000000000
N       -1.0566626305   -0.3847926122    0.0000000000
H        1.0110487141    0.4258336579   -0.0000000000
3    
Image 15/21, Energy =   -93.4303247377 (+0.162 kcal/mol)
C        0.0411902245   -0.0153661624    0.0000000000
N       -0.9986373053   -0.5221925789   -0.0000000000
H        0.9574372269    0.5375477299   -0.0000000000
3    
Image 16/21, Energy =   -93.4305022391 (+0.050 kcal/mol)
C        0.0331148794    0.0014530928   -0.0000000000
N       -0.9299371185   -0.6404774659   -0.0000000000
H        0.8968245564    0.6390063777   -0.0000000000
3    
Image 17/21, Energy =   -93.4305638726 (+0.012 kcal/mol)
C        0.0255315969    0.0132010868   -0.0000000000
N       -0.8537989685   -0.7396453743    0.0000000000
H        0.8282724355    0.7264273150   -0.0000000000
3    
Image 18/21, Energy =   -93.4303035043 (+0.175 kcal/mol)
C        0.0436566383   -0.0130087035    0.0000000000
N       -0.9612497472   -0.5878976687    0.0000000000
H        0.9175823362    0.6008922618    0.0000000000
3    
Image 19/21, Energy =   -93.4305182466 (+0.040 kcal/mol)
C        0.0326250903    0.0055132139   -0.0000000000
N       -0.8787525236   -0.7066675603    0.0000000000
H        0.8461344780    0.7011339829    0.0000000000
3    
Image 20/21, Energy =   -93.4305823703 (+0.000 kcal/mol)
C        0.0194260556    0.0213642891    0.0000000000
N       -0.7589320377   -0.8347584640    0.0000000000
H        0.7395059821    0.8133941749    0.0000000000
