3    
Image 0/21, Energy =   -93.4092025797 (+13.417 kcal/mol)
C       -0.7519862184   -0.8272338399    0.0000000000
N        0.0394753354    0.0434721365    0.0000000000
H        0.7125108830    0.7837617034    0.0000000000
3    
Image 1/21, Energy =   -93.4082912937 (+13.988 kcal/mol)
C       -0.6342191551   -0.9115198670    0.0000000000
N       -0.0411522872    0.1060548631    0.0000000000
H        0.6753590032    0.8055169882   -0.0000000000
3    
Image 2/21, Energy =   -93.4046604960 (+16.267 kcal/mol)
C       -0.4619568537   -0.9774736357    0.0000000000
N       -0.1503582809    0.1628831078   -0.0000000000
H        0.6122385965    0.8146683121   -0.0000000000
3    
Image 3/21, Energy =   -93.3983150359 (+20.249 kcal/mol)
C       -0.3563541005   -0.9684942719   -0.0000000000
N       -0.2460487447    0.2143001949   -0.0000000000
H        0.6023014345    0.7542278898   -0.0000000000
3    
Image 4/21, Energy =   -93.3862550765 (+27.816 kcal/mol)
C       -0.2534333238   -0.9071680415   -0.0000000000
N       -0.3579132009    0.2858922817   -0.0000000000
H        0.6112904793    0.6212968144   -0.0000000000
3    
Image 5/21, Energy =   -93.3742710974 (+35.336 kcal/mol)
C       -0.1542405514   -0.8288468961   -0.0000000000
N       -0.4528426273    0.3353164512   -0.0000000000
H        0.6070515176    0.4935630187   -0.0000000000
3    
Image 6/21, Energy =   -93.3638938273 (+41.848 kcal/mol)
C       -0.0839001149   -0.7471578382   -0.0000000000
N       -0.5443739912    0.3614886267   -0.0000000000
H        0.6282403661    0.3857109180    0.0000000000
3    
Image 7/21, Energy =   -93.3552137248 (+47.295 kcal/mol)
C       -0.0253984445   -0.6407649484   -0.0000000000
N       -0.6868342094    0.3488867256   -0.0000000000
H        0.7122028941    0.2919341730    0.0000000000
3    
Image 8/21, Energy =   -93.3572535293 (+46.015 kcal/mol)
C       -0.0104256358   -0.5968563753   -0.0000000000
N       -0.7451943970    0.3340046088   -0.0000000000
H        0.7555723703    0.2629150428    0.0000000000
3    
Image 9/21, Energy =   -93.3739568354 (+35.534 kcal/mol)
C        0.0047201746   -0.4883564357   -0.0000000000
N       -0.8664973892    0.2990537870   -0.0000000000
H        0.8617348565    0.1893678670    0.0000000000
3    
Image 10/21, Energy =   -93.4067867490 (+14.933 kcal/mol)
C        0.0135701681   -0.3117802653   -0.0000000000
N       -1.0115618752    0.2303017292   -0.0000000000
H        0.9979477246    0.0815717140    0.0000000000
3    
Image 11/21, Energy =   -93.4253907331 (+3.258 kcal/mol)
C        0.0197713298   -0.1489554294   -0.0000000000
N       -1.0930501274    0.1657899906    0.0000000000
H        1.0732454793   -0.0167416253    0.0000000000
3    
Image 12/21, Energy =   -93.4305826017 (+0.000 kcal/mol)
C        0.0286438660    0.0046656666    0.0000000000
N       -1.1189946952   -0.1500497615   -0.0000000000
H        1.0903223082    0.1453935727    0.0000000000
3    
Image 13/21, Energy =   -93.4305728373 (+0.007 kcal/mol)
C        0.0296688914    0.0006216338    0.0000000000
N       -1.1078241634   -0.2211467309    0.0000000000
H        1.0781202860    0.2205303053    0.0000000000
3    
Image 14/21, Energy =   -93.4305787557 (+0.003 kcal/mol)
C        0.0284008599    0.0062519195    0.0000000000
N       -1.0569571571   -0.3958798202    0.0000000000
H        1.0285156964    0.3896118949    0.0000000000
3    
Image 15/21, Energy =   -93.4305829853 (+0.000 kcal/mol)
C        0.0250975687    0.0146419849    0.0000000000
N       -0.9948859532   -0.5329167617   -0.0000000000
H        0.9697646571    0.5182428059   -0.0000000000
3    
Image 16/21, Energy =   -93.4305820319 (+0.001 kcal/mol)
C        0.0227528867    0.0184485057    0.0000000000
N       -0.9246873447   -0.6466128123   -0.0000000000
H        0.9019245867    0.6281271031   -0.0000000000
3    
Image 17/21, Energy =   -93.4305832416 (+0.000 kcal/mol)
C        0.0217920010    0.0192452789   -0.0000000000
N       -0.8540160415   -0.7378629410    0.0000000000
H        0.8322247691    0.7185920419   -0.0000000000
3    
Image 18/21, Energy =   -93.4305827105 (+0.000 kcal/mol)
C        0.0251730497    0.0144124005   -0.0000000000
N       -0.9511268983   -0.6074052234    0.0000000000
H        0.9259417007    0.5929439031    0.0000000000
3    
Image 19/21, Energy =   -93.4305806633 (+0.002 kcal/mol)
C        0.0204014712    0.0209106277   -0.0000000000
N       -0.8736782364   -0.7145298695    0.0000000000
H        0.8532738600    0.6935803639    0.0000000000
3    
Image 20/21, Energy =   -93.4305823703 (+0.001 kcal/mol)
C        0.0194260556    0.0213642891    0.0000000000
N       -0.7589320377   -0.8347584640    0.0000000000
H        0.7395059821    0.8133941749    0.0000000000
