3    
Image 0/21, Energy =   -93.4092025797 (+13.417 kcal/mol)
C       -0.7519862184   -0.8272338399    0.0000000000
N        0.0394753354    0.0434721365    0.0000000000
H        0.7125108830    0.7837617034    0.0000000000
3    
Image 1/21, Energy =   -93.4090533905 (+13.510 kcal/mol)
C       -0.6067735479   -0.9357663554    0.0000000000
N        0.0005616678    0.0709199097    0.0000000000
H        0.6062033916    0.8649105554    0.0000000000
3    
Image 2/21, Energy =   -93.4059934392 (+15.430 kcal/mol)
C       -0.4276598833   -1.0021747447    0.0000000000
N       -0.1289555636    0.1381743961   -0.0000000000
H        0.5565044219    0.8640724194   -0.0000000000
3    
Image 3/21, Energy =   -93.3983150359 (+20.249 kcal/mol)
C       -0.3563541005   -0.9684942719   -0.0000000000
N       -0.2460487447    0.2143001949   -0.0000000000
H        0.6023014345    0.7542278898   -0.0000000000
3    
Image 4/21, Energy =   -93.3862550765 (+27.816 kcal/mol)
C       -0.2534333238   -0.9071680415   -0.0000000000
N       -0.3579132009    0.2858922817   -0.0000000000
H        0.6112904793    0.6212968144   -0.0000000000
3    
Image 5/21, Energy =   -93.3743189858 (+35.306 kcal/mol)
C       -0.1585494878   -0.8288094115   -0.0000000000
N       -0.4512134520    0.3375538655   -0.0000000000
H        0.6097192552    0.4913111520    0.0000000000
3    
Image 6/21, Energy =   -93.3639011085 (+41.844 kcal/mol)
C       -0.0844817243   -0.7468408895   -0.0000000000
N       -0.5437956268    0.3617998274   -0.0000000000
H        0.6282413537    0.3850915160    0.0000000000
3    
Image 7/21, Energy =   -93.3552129888 (+47.296 kcal/mol)
C       -0.0252881397   -0.6422516464   -0.0000000000
N       -0.6857178388    0.3490383094   -0.0000000000
H        0.7109784267    0.2932775301    0.0000000000
3    
Image 8/21, Energy =   -93.3575576168 (+45.824 kcal/mol)
C       -0.0111892400   -0.5936644176   -0.0000000000
N       -0.7488148075    0.3338773899   -0.0000000000
H        0.7599598550    0.2598698857    0.0000000000
3    
Image 9/21, Energy =   -93.3743468597 (+35.289 kcal/mol)
C        0.0076054863   -0.4863583454   -0.0000000000
N       -0.8704385923    0.2914299807   -0.0000000000
H        0.8628051465    0.1950171942    0.0000000000
3    
Image 10/21, Energy =   -93.4069710736 (+14.817 kcal/mol)
C        0.0174857875   -0.3109395179   -0.0000000000
N       -1.0155014550    0.2187744538   -0.0000000000
H        0.9979699423    0.0922796926    0.0000000000
3    
Image 11/21, Energy =   -93.4258926904 (+2.943 kcal/mol)
C        0.0222177700   -0.1416258075   -0.0000000000
N       -1.0981026048    0.1462913546   -0.0000000000
H        1.0758198402   -0.0045565272    0.0000000000
3    
Image 12/21, Energy =   -93.4305778105 (+0.003 kcal/mol)
C        0.0296310526   -0.0011780172    0.0000000000
N       -1.1212954434   -0.1299353343   -0.0000000000
H        1.0916189688    0.1311263181   -0.0000000000
3    
Image 13/21, Energy =   -93.4305823642 (+0.001 kcal/mol)
C        0.0288299867    0.0059311333    0.0000000000
N       -1.1065982637   -0.2228648380    0.0000000000
H        1.0777178958    0.2169342664    0.0000000000
3    
Image 14/21, Energy =   -93.4305822115 (+0.001 kcal/mol)
C        0.0271800462    0.0093940664    0.0000000000
N       -1.0569837378   -0.3949077530    0.0000000000
H        1.0297486898    0.3854906906   -0.0000000000
3    
Image 15/21, Energy =   -93.4305829853 (+0.000 kcal/mol)
C        0.0250975687    0.0146419849    0.0000000000
N       -0.9948859532   -0.5329167617   -0.0000000000
H        0.9697646571    0.5182428059   -0.0000000000
3    
Image 16/21, Energy =   -93.4305820319 (+0.001 kcal/mol)
C        0.0227528867    0.0184485057    0.0000000000
N       -0.9246873447   -0.6466128123   -0.0000000000
H        0.9019245867    0.6281271031   -0.0000000000
3    
Image 17/21, Energy =   -93.4305832416 (+0.000 kcal/mol)
C        0.0217920010    0.0192452789   -0.0000000000
N       -0.8540160415   -0.7378629410    0.0000000000
H        0.8322247691    0.7185920419   -0.0000000000
3    
Image 18/21, Energy =   -93.4305829162 (+0.000 kcal/mol)
C        0.0250702101    0.0148859664   -0.0000000000
N       -0.9465109084   -0.6144775475    0.0000000000
H        0.9214176791    0.5995347210    0.0000000000
3    
Image 19/21, Energy =   -93.4305806633 (+0.002 kcal/mol)
C        0.0204014712    0.0209106277   -0.0000000000
N       -0.8736782364   -0.7145298695    0.0000000000
H        0.8532738600    0.6935803639    0.0000000000
3    
Image 20/21, Energy =   -93.4305823703 (+0.001 kcal/mol)
C        0.0194260556    0.0213642891    0.0000000000
N       -0.7589320377   -0.8347584640    0.0000000000
H        0.7395059821    0.8133941749    0.0000000000
