3    
Image 0/21, Energy =   -93.4092025797 (+13.417 kcal/mol)
C       -0.7519862184   -0.8272338399    0.0000000000
N        0.0394753354    0.0434721365    0.0000000000
H        0.7125108830    0.7837617034    0.0000000000
3    
Image 1/21, Energy =   -93.4087387121 (+13.708 kcal/mol)
C       -0.6283114589   -0.9203936983    0.0000000000
N       -0.0211083735    0.0886253743    0.0000000000
H        0.6494121758    0.8318296451   -0.0000000000
3    
Image 2/21, Energy =   -93.4053971790 (+15.804 kcal/mol)
C       -0.4393639386   -0.9938298603    0.0000000000
N       -0.1405531870    0.1490310071   -0.0000000000
H        0.5798217397    0.8448840958   -0.0000000000
3    
Image 3/21, Energy =   -93.3983150359 (+20.249 kcal/mol)
C       -0.3563541005   -0.9684942719   -0.0000000000
N       -0.2460487447    0.2143001949   -0.0000000000
H        0.6023014345    0.7542278898   -0.0000000000
3    
Image 4/21, Energy =   -93.3862550765 (+27.816 kcal/mol)
C       -0.2534333238   -0.9071680415   -0.0000000000
N       -0.3579132009    0.2858922817   -0.0000000000
H        0.6112904793    0.6212968144   -0.0000000000
3    
Image 5/21, Energy =   -93.3742987191 (+35.319 kcal/mol)
C       -0.1555179299   -0.8291779308   -0.0000000000
N       -0.4523249508    0.3362043947   -0.0000000000
H        0.6078043362    0.4930140383    0.0000000000
3    
Image 6/21, Energy =   -93.3639011085 (+41.844 kcal/mol)
C       -0.0844817243   -0.7468408895   -0.0000000000
N       -0.5437956268    0.3617998274   -0.0000000000
H        0.6282413537    0.3850915160    0.0000000000
3    
Image 7/21, Energy =   -93.3552129888 (+47.296 kcal/mol)
C       -0.0252881397   -0.6422516464   -0.0000000000
N       -0.6857178388    0.3490383094   -0.0000000000
H        0.7109784267    0.2932775301    0.0000000000
3    
Image 8/21, Energy =   -93.3573534367 (+45.952 kcal/mol)
C       -0.0092889048   -0.5959495916   -0.0000000000
N       -0.7472150250    0.3327463513   -0.0000000000
H        0.7564583126    0.2632750097    0.0000000000
3    
Image 9/21, Energy =   -93.3741034041 (+35.442 kcal/mol)
C        0.0068267599   -0.4870145634   -0.0000000000
N       -0.8683448265    0.2929714679   -0.0000000000
H        0.8614774545    0.1941157242    0.0000000000
3    
Image 10/21, Energy =   -93.4068398657 (+14.899 kcal/mol)
C        0.0148573747   -0.3112799624   -0.0000000000
N       -1.0126988754    0.2254327770   -0.0000000000
H        0.9977874433    0.0859477016    0.0000000000
3    
Image 11/21, Energy =   -93.4255041634 (+3.187 kcal/mol)
C        0.0204194268   -0.1470814360   -0.0000000000
N       -1.0941353697    0.1592911606   -0.0000000000
H        1.0736716063   -0.0121095544    0.0000000000
3    
Image 12/21, Energy =   -93.4305678735 (+0.010 kcal/mol)
C        0.0306261928   -0.0022703544    0.0000000000
N       -1.1195302999   -0.1458115894   -0.0000000000
H        1.0888694017    0.1480939610    0.0000000000
3    
Image 13/21, Energy =   -93.4305471771 (+0.023 kcal/mol)
C        0.0311712385   -0.0062462344    0.0000000000
N       -1.1077946011   -0.2171466377    0.0000000000
H        1.0765823146    0.2234000618    0.0000000000
3    
Image 14/21, Energy =   -93.4305614556 (+0.014 kcal/mol)
C        0.0299086717    0.0015432901   -0.0000000000
N       -1.0576662971   -0.3923092662    0.0000000000
H        1.0277109884    0.3907500704   -0.0000000000
3    
Image 15/21, Energy =   -93.4305829853 (+0.000 kcal/mol)
C        0.0250975687    0.0146419849    0.0000000000
N       -0.9948859532   -0.5329167617   -0.0000000000
H        0.9697646571    0.5182428059   -0.0000000000
3    
Image 16/21, Energy =   -93.4305820319 (+0.001 kcal/mol)
C        0.0227528867    0.0184485057    0.0000000000
N       -0.9246873447   -0.6466128123   -0.0000000000
H        0.9019245867    0.6281271031   -0.0000000000
3    
Image 17/21, Energy =   -93.4305832416 (+0.000 kcal/mol)
C        0.0217920010    0.0192452789   -0.0000000000
N       -0.8540160415   -0.7378629410    0.0000000000
H        0.8322247691    0.7185920419   -0.0000000000
3    
Image 18/21, Energy =   -93.4305794619 (+0.002 kcal/mol)
C        0.0267708934    0.0124989322   -0.0000000000
N       -0.9503655051   -0.6085235820    0.0000000000
H        0.9235768449    0.5959734649    0.0000000000
3    
Image 19/21, Energy =   -93.4305806633 (+0.002 kcal/mol)
C        0.0204014712    0.0209106277   -0.0000000000
N       -0.8736782364   -0.7145298695    0.0000000000
H        0.8532738600    0.6935803639    0.0000000000
3    
Image 20/21, Energy =   -93.4305823703 (+0.001 kcal/mol)
C        0.0194260556    0.0213642891    0.0000000000
N       -0.7589320377   -0.8347584640    0.0000000000
H        0.7395059821    0.8133941749    0.0000000000
