3    
Image 0/21, Energy =   -93.4092025797 (+13.417 kcal/mol)
C       -0.7519862184   -0.8272338399    0.0000000000
N        0.0394753354    0.0434721365    0.0000000000
H        0.7125108830    0.7837617034    0.0000000000
3    
Image 1/21, Energy =   -93.4064029160 (+15.173 kcal/mol)
C       -0.6504118305   -0.8787423683   -0.0000000000
N       -0.0864681806    0.1560010229   -0.0000000000
H        0.7368655007    0.7227677565   -0.0000000000
3    
Image 2/21, Energy =   -93.4007133336 (+18.744 kcal/mol)
C       -0.5118711165   -0.9172278665    0.0000000000
N       -0.1885568266    0.2236364343    0.0000000000
H        0.7003772329    0.6936204448    0.0000000000
3    
Image 3/21, Energy =   -93.3959756576 (+21.717 kcal/mol)
C       -0.4222877728   -0.9228778519    0.0000000000
N       -0.2491142094    0.2547263872   -0.0000000000
H        0.6713612070    0.6681851479   -0.0000000000
3    
Image 4/21, Energy =   -93.3859579963 (+28.003 kcal/mol)
C       -0.2832912367   -0.8958178045    0.0000000000
N       -0.3494713013    0.3001457067   -0.0000000000
H        0.6327186505    0.5956921231   -0.0000000000
3    
Image 5/21, Energy =   -93.3741773698 (+35.395 kcal/mol)
C       -0.1638154029   -0.8268395855   -0.0000000000
N       -0.4483092644    0.3430238699    0.0000000000
H        0.6121093035    0.4838373110   -0.0000000000
3    
Image 6/21, Energy =   -93.3638012271 (+41.906 kcal/mol)
C       -0.0800619146   -0.7469067273   -0.0000000000
N       -0.5456516045    0.3620582927   -0.0000000000
H        0.6256995136    0.3848672831   -0.0000000000
3    
Image 7/21, Energy =   -93.3552277759 (+47.286 kcal/mol)
C       -0.0291204429   -0.6454867283   -0.0000000000
N       -0.6787143744    0.3517453519   -0.0000000000
H        0.7078059496    0.2937752877    0.0000000000
3    
Image 8/21, Energy =   -93.3569157266 (+46.227 kcal/mol)
C       -0.0188597215   -0.5995384867   -0.0000000000
N       -0.7350967364    0.3451294880   -0.0000000000
H        0.7539118153    0.2544530647    0.0000000000
3    
Image 9/21, Energy =   -93.3737160411 (+35.685 kcal/mol)
C        0.0020766409   -0.4882276842   -0.0000000000
N       -0.8627695620    0.3030141614   -0.0000000000
H        0.8606780870    0.1852589535    0.0000000000
3    
Image 10/21, Energy =   -93.4063008053 (+15.237 kcal/mol)
C        0.0129205063   -0.3142480170   -0.0000000000
N       -1.0080469255    0.2375986072    0.0000000000
H        0.9951233952    0.0767196180   -0.0000000000
3    
Image 11/21, Energy =   -93.4246816730 (+3.703 kcal/mol)
C        0.0197376871   -0.1578152612   -0.0000000000
N       -1.0898410987    0.1620570018   -0.0000000000
H        1.0700870364   -0.0041762728    0.0000000000
3    
Image 12/21, Energy =   -93.4305655547 (+0.011 kcal/mol)
C        0.0274413743    0.0121555585    0.0000000000
N       -1.1186608468   -0.1533422178   -0.0000000000
H        1.0912048719    0.1411927129    0.0000000000
3    
Image 13/21, Energy =   -93.4304726960 (+0.069 kcal/mol)
C        0.0238423632    0.0259894822    0.0000000000
N       -1.1045451030   -0.2399863040    0.0000000000
H        1.0806825871    0.2139914352   -0.0000000000
3    
Image 14/21, Energy =   -93.4305219540 (+0.038 kcal/mol)
C        0.0220435183    0.0250955462    0.0000000000
N       -1.0515571509   -0.4121192453    0.0000000000
H        1.0294893591    0.3870030112    0.0000000000
3    
Image 15/21, Energy =   -93.4305614067 (+0.014 kcal/mol)
C        0.0212101904    0.0223390976    0.0000000000
N       -0.9914642719   -0.5394168709   -0.0000000000
H        0.9702435530    0.5170471227   -0.0000000000
3    
Image 16/21, Energy =   -93.4305735340 (+0.006 kcal/mol)
C        0.0206205143    0.0209441786   -0.0000000000
N       -0.9243936282   -0.6492187823   -0.0000000000
H        0.9037725354    0.6282415124   -0.0000000000
3    
Image 17/21, Energy =   -93.4305832416 (+0.000 kcal/mol)
C        0.0217920010    0.0192452789   -0.0000000000
N       -0.8540160415   -0.7378629410    0.0000000000
H        0.8322247691    0.7185920419   -0.0000000000
3    
Image 18/21, Energy =   -93.4305675152 (+0.010 kcal/mol)
C        0.0219127445    0.0215752999   -0.0000000000
N       -0.9527974927   -0.6054990030    0.0000000000
H        0.9308864227    0.5838807003    0.0000000000
3    
Image 19/21, Energy =   -93.4305773728 (+0.004 kcal/mol)
C        0.0195196198    0.0220424207   -0.0000000000
N       -0.8731597342   -0.7143442673    0.0000000000
H        0.8536444426    0.6922672745    0.0000000000
3    
Image 20/21, Energy =   -93.4305823703 (+0.001 kcal/mol)
C        0.0194260556    0.0213642891    0.0000000000
N       -0.7589320377   -0.8347584640    0.0000000000
H        0.7395059821    0.8133941749    0.0000000000
