3    
Image 0/21, Energy =   -93.4092025797 (+13.416 kcal/mol)
C       -0.7519862184   -0.8272338399    0.0000000000
N        0.0394753354    0.0434721365    0.0000000000
H        0.7125108830    0.7837617034    0.0000000000
3    
Image 1/21, Energy =   -93.4060973613 (+15.365 kcal/mol)
C       -0.6804369527   -0.8666016347    0.0000000000
N       -0.0889852062    0.1569140944    0.0000000000
H        0.7694222641    0.7096877956    0.0000000000
3    
Image 2/21, Energy =   -93.4001821587 (+19.076 kcal/mol)
C       -0.5987580763   -0.8565978295   -0.0000000000
N       -0.1670098684    0.2477377553    0.0000000000
H        0.7657677676    0.6088603276   -0.0000000000
3    
Image 3/21, Energy =   -93.3909675757 (+24.859 kcal/mol)
C       -0.5109421150   -0.8320147594    0.0000000000
N       -0.2378575020    0.3286966515   -0.0000000000
H        0.7487993551    0.5033182100   -0.0000000000
3    
Image 4/21, Energy =   -93.3711891608 (+37.270 kcal/mol)
C       -0.3279068886   -0.7648823996    0.0000000000
N       -0.3998416169    0.4305980081   -0.0000000000
H        0.7277484453    0.3342845747   -0.0000000000
3    
Image 5/21, Energy =   -93.3474250734 (+52.182 kcal/mol)
C       -0.2735455799   -0.7704992851   -0.0000000000
N       -0.5338486343    0.3756060524   -0.0000000000
H        0.8073938821    0.3948938118   -0.0000000000
3    
Image 6/21, Energy =   -93.3174047981 (+71.020 kcal/mol)
C       -0.2287418089   -0.7914379593    0.0000000000
N       -0.6668548864    0.3118432663    0.0000000000
H        0.8955958378    0.4795956630    0.0000000000
3    
Image 7/21, Energy =   -93.3080076587 (+76.917 kcal/mol)
C       -0.1728939409   -0.7848728572   -0.0000000000
N       -0.7502474312    0.2843452815    0.0000000000
H        0.9231407107    0.5005278307    0.0000000000
3    
Image 8/21, Energy =   -93.3313607113 (+62.263 kcal/mol)
C       -0.1298645832   -0.6896857029    0.0000000000
N       -0.7381858304    0.3084734519   -0.0000000000
H        0.8680503579    0.3812133003   -0.0000000000
3    
Image 9/21, Energy =   -93.3558941168 (+46.868 kcal/mol)
C       -0.0505539600   -0.6014759160    0.0000000000
N       -0.7452722893    0.3426871512   -0.0000000000
H        0.7958265450    0.2587896663   -0.0000000000
3    
Image 10/21, Energy =   -93.3677499772 (+39.428 kcal/mol)
C        0.0471512250   -0.4982543680    0.0000000000
N       -0.8505999413    0.2426796960    0.0000000000
H        0.8034486946    0.2555750833    0.0000000000
3    
Image 11/21, Energy =   -93.3826990373 (+30.047 kcal/mol)
C        0.1160768692   -0.3758076273    0.0000000000
N       -0.9581709707    0.0759048327   -0.0000000000
H        0.8420940441    0.2999038867   -0.0000000000
3    
Image 12/21, Energy =   -93.4038314137 (+16.786 kcal/mol)
C        0.1380248299   -0.2865925548   -0.0000000000
N       -1.0224483300   -0.1334567331    0.0000000000
H        0.8844228922    0.4200498686    0.0000000000
3    
Image 13/21, Energy =   -93.4154117689 (+9.520 kcal/mol)
C        0.1349936459   -0.2159597234   -0.0000000000
N       -1.0298892267   -0.3136979342   -0.0000000000
H        0.8948953766    0.5296580522   -0.0000000000
3    
Image 14/21, Energy =   -93.4194489346 (+6.986 kcal/mol)
C        0.1171253927   -0.1486195804    0.0000000000
N       -1.0247112480   -0.4954213253   -0.0000000000
H        0.9075853074    0.6440406225   -0.0000000000
3    
Image 15/21, Energy =   -93.4239335166 (+4.172 kcal/mol)
C        0.0870745838   -0.0902771962    0.0000000000
N       -0.9597640006   -0.6355657775    0.0000000000
H        0.8726893945    0.7258428513   -0.0000000000
3    
Image 16/21, Energy =   -93.4208017069 (+6.137 kcal/mol)
C        0.0489187741   -0.0321551046    0.0000000000
N       -0.8903482824   -0.7843561372   -0.0000000000
H        0.8414294178    0.8165111591   -0.0000000000
3    
Image 17/21, Energy =   -93.4271742451 (+2.139 kcal/mol)
C        0.0964735793   -0.0632168371   -0.0000000000
N       -0.9038167624   -0.6402040010    0.0000000000
H        0.8073433094    0.7034203440   -0.0000000000
3    
Image 18/21, Energy =   -93.3939252594 (+23.003 kcal/mol)
C        0.1776330171   -0.0892870541    0.0000000000
N       -0.9506531332   -0.5179352120    0.0000000000
H        0.7730189158    0.6072210615    0.0000000000
3    
Image 19/21, Energy =   -93.4277966964 (+1.748 kcal/mol)
C        0.0866235702   -0.0433335517   -0.0000000000
N       -0.8778208293   -0.6759403350    0.0000000000
H        0.7911974134    0.7192733300   -0.0000000000
3    
Image 20/21, Energy =   -93.4305823703 (+0.000 kcal/mol)
C        0.0194260556    0.0213642891    0.0000000000
N       -0.7589320377   -0.8347584640    0.0000000000
H        0.7395059821    0.8133941749    0.0000000000
