
Host: c8-83

Timers On : Wed Mar 24 00:21:41 2021
Timers Off: Wed Mar 24 00:21:44 2021

Wall Time:        3.22 seconds

                                                       Time (seconds)
Module                                       User      System        Wall        Calls

--------------------------------------------------------------------------------------

**************************************************************************************


Host: c8-83
Host: c8-83


Timers On : Wed Mar 24 00:21:41 2021
Timers On : Wed Mar 24 00:21:41 2021
Timers Off: Wed Mar 24 00:21:44 2021
Timers Off: Wed Mar 24 00:21:44 2021

Wall Time:        3.22 seconds


Wall Time:        3.23 seconds

                                                       Time (seconds)
                                                       Time (seconds)
Module                                       User      System        Wall        Calls
Module                                       User      System        Wall        Calls

--------------------------------------------------------------------------------------

--------------------------------------------------------------------------------------

**************************************************************************************

**************************************************************************************

Host: c8-83

Timers On : Wed Mar 24 00:21:41 2021
Timers Off: Wed Mar 24 00:21:44 2021

Wall Time:        3.22 seconds

                                                       Time (seconds)
Module                                       User      System        Wall        Calls

--------------------------------------------------------------------------------------

**************************************************************************************

Host: c8-71

Timers On : Wed Mar 24 00:26:27 2021
Timers Off: Wed Mar 24 00:26:30 2021

Wall Time:        2.46 seconds

                                                       Time (seconds)
Module                                       User      System        Wall        Calls

--------------------------------------------------------------------------------------

**************************************************************************************

Host: c8-71

Timers On : Wed Mar 24 00:26:27 2021
Timers Off: Wed Mar 24 00:26:30 2021

Wall Time:        2.46 seconds

                                                       Time (seconds)
Module                                       User      System        Wall        Calls

--------------------------------------------------------------------------------------

**************************************************************************************

Host: c8-71

Timers On : Wed Mar 24 00:26:27 2021
Timers Off: Wed Mar 24 00:26:30 2021

Wall Time:        2.46 seconds

                                                       Time (seconds)
Module                                       User      System        Wall        Calls

--------------------------------------------------------------------------------------

**************************************************************************************

Host: c8-71

Timers On : Wed Mar 24 00:26:27 2021
Timers Off: Wed Mar 24 00:26:30 2021

Wall Time:        2.46 seconds

                                                       Time (seconds)
Module                                       User      System        Wall        Calls

--------------------------------------------------------------------------------------

**************************************************************************************

Host: breakaway

Timers On : Wed Mar 24 01:28:08 2021
Timers Off: Wed Mar 24 01:28:09 2021

Wall Time:        1.22 seconds

                                                       Time (seconds)
Module                                       User      System        Wall        Calls

--------------------------------------------------------------------------------------

**************************************************************************************

Host: breakaway

Timers On : Wed Mar 24 01:37:02 2021
Timers Off: Wed Mar 24 01:37:04 2021

Wall Time:        1.88 seconds

                                                       Time (seconds)
Module                                       User      System        Wall        Calls

--------------------------------------------------------------------------------------

**************************************************************************************

Host: c8-72

Timers On : Wed Mar 24 01:54:40 2021
Timers Off: Wed Mar 24 01:54:43 2021

Wall Time:        2.68 seconds

                                                       Time (seconds)
Module                                       User      System        Wall        Calls

--------------------------------------------------------------------------------------

**************************************************************************************


Host: c8-72

Host: c8-72

Timers On : Wed Mar 24 01:54:40 2021
Timers On : Wed Mar 24 01:54:40 2021
Timers Off: Wed Mar 24 01:54:43 2021
Timers Off: Wed Mar 24 01:54:43 2021

Wall Time:        2.68 seconds

                                                       Time (seconds)
Module                                       User      System        Wall        Calls

--------------------------------------------------------------------------------------

**************************************************************************************

Wall Time:        2.68 seconds

                                                       Time (seconds)
Module                                       User      System        Wall        Calls

--------------------------------------------------------------------------------------

**************************************************************************************

Host: c8-72

Timers On : Wed Mar 24 01:54:40 2021
Timers Off: Wed Mar 24 01:54:43 2021

Wall Time:        2.69 seconds

                                                       Time (seconds)
Module                                       User      System        Wall        Calls

--------------------------------------------------------------------------------------

**************************************************************************************

Host: c4-63

Timers On : Wed Mar 24 01:55:13 2021
Timers Off: Wed Mar 24 01:55:15 2021

Wall Time:        2.22 seconds

                                                       Time (seconds)
Module                                       User      System        Wall        Calls

--------------------------------------------------------------------------------------

**************************************************************************************

Host: c4-63


Host: c4-63


Timers On : Wed Mar 24 01:55:13 2021
Host: c4-63

Timers Off: Wed Mar 24 01:55:15 2021
Timers On : Wed Mar 24 01:55:13 2021
Timers Off: Wed Mar 24 01:55:15 2021
Timers On : Wed Mar 24 01:55:13 2021

Wall Time:        2.22 seconds


Wall Time:        2.22 seconds

                                                       Time (seconds)
                                                       Time (seconds)
Timers Off: Wed Mar 24 01:55:15 2021
Module                                       User      System        Wall        Calls
Module                                       User      System        Wall        Calls

--------------------------------------------------------------------------------------

--------------------------------------------------------------------------------------

**************************************************************************************

**************************************************************************************

Wall Time:        2.22 seconds

                                                       Time (seconds)
Module                                       User      System        Wall        Calls

--------------------------------------------------------------------------------------

**************************************************************************************

Host: c4-70

Timers On : Wed Mar 24 01:55:58 2021
Timers Off: Wed Mar 24 01:56:00 2021

Wall Time:        2.65 seconds

                                                       Time (seconds)
Module                                       User      System        Wall        Calls

--------------------------------------------------------------------------------------

**************************************************************************************

Host: c4-70


Host: c4-70

Timers On : Wed Mar 24 01:55:58 2021

Timers Off: Wed Mar 24 01:56:00 2021
Host: c4-70

Timers On : Wed Mar 24 01:55:58 2021

Wall Time:        2.65 seconds

                                                       Time (seconds)
Timers Off: Wed Mar 24 01:56:00 2021
Timers On : Wed Mar 24 01:55:58 2021
Module                                       User      System        Wall        Calls
Timers Off: Wed Mar 24 01:56:00 2021

Wall Time:        2.65 seconds


--------------------------------------------------------------------------------------
                                                       Time (seconds)

**************************************************************************************
Module                                       User      System        Wall        Calls

--------------------------------------------------------------------------------------

Wall Time:        2.65 seconds


**************************************************************************************
                                                       Time (seconds)
Module                                       User      System        Wall        Calls

--------------------------------------------------------------------------------------

**************************************************************************************

Host: c8-71

Timers On : Wed Mar 24 02:06:01 2021
Timers Off: Wed Mar 24 02:06:03 2021

Wall Time:        2.44 seconds

                                                       Time (seconds)
Module                                       User      System        Wall        Calls

--------------------------------------------------------------------------------------

**************************************************************************************

Host: c8-71

Timers On : Wed Mar 24 02:06:01 2021
Timers Off: Wed Mar 24 02:06:03 2021

Wall Time:        2.44 seconds

                                                       Time (seconds)
Module                                       User      System        Wall        Calls

--------------------------------------------------------------------------------------

**************************************************************************************

Host: c8-71

Timers On : Wed Mar 24 02:06:01 2021
Timers Off: Wed Mar 24 02:06:03 2021

Wall Time:        2.45 seconds

                                                       Time (seconds)
Module                                       User      System        Wall        Calls

--------------------------------------------------------------------------------------

**************************************************************************************

Host: c8-71

Timers On : Wed Mar 24 02:06:01 2021
Timers Off: Wed Mar 24 02:06:03 2021

Wall Time:        2.45 seconds

                                                       Time (seconds)
Module                                       User      System        Wall        Calls

--------------------------------------------------------------------------------------

**************************************************************************************

Host: c8-72

Timers On : Wed Mar 24 02:06:22 2021
Timers Off: Wed Mar 24 02:06:24 2021

Wall Time:        2.41 seconds

                                                       Time (seconds)
Module                                       User      System        Wall        Calls

--------------------------------------------------------------------------------------

**************************************************************************************

Host: c8-72

Timers On : Wed Mar 24 02:06:22 2021
Timers Off: Wed Mar 24 02:06:24 2021

Wall Time:        2.40 seconds

                                                       Time (seconds)
Module                                       User      System        Wall        Calls

--------------------------------------------------------------------------------------

**************************************************************************************


Host: c8-72
Host: c8-72


Timers On : Wed Mar 24 02:06:22 2021
Timers On : Wed Mar 24 02:06:22 2021
Timers Off: Wed Mar 24 02:06:24 2021
Timers Off: Wed Mar 24 02:06:24 2021

Wall Time:        2.40 seconds


Wall Time:        2.42 seconds

                                                       Time (seconds)
                                                       Time (seconds)
Module                                       User      System        Wall        Calls
Module                                       User      System        Wall        Calls

--------------------------------------------------------------------------------------

--------------------------------------------------------------------------------------

**************************************************************************************

**************************************************************************************

Host: c8-73

Timers On : Wed Mar 24 02:06:32 2021
Timers Off: Wed Mar 24 02:06:34 2021

Wall Time:        2.47 seconds

                                                       Time (seconds)
Module                                       User      System        Wall        Calls

--------------------------------------------------------------------------------------

**************************************************************************************


Host: c8-73

Host: c8-73

Timers On : Wed Mar 24 02:06:32 2021
Timers On : Wed Mar 24 02:06:32 2021
Timers Off: Wed Mar 24 02:06:34 2021
Timers Off: Wed Mar 24 02:06:34 2021

Wall Time:        2.47 seconds


Wall Time:        2.47 seconds

                                                       Time (seconds)
                                                       Time (seconds)
Module                                       User      System        Wall        Calls

--------------------------------------------------------------------------------------
Module                                       User      System        Wall        Calls

**************************************************************************************

--------------------------------------------------------------------------------------

**************************************************************************************

Host: c8-73

Timers On : Wed Mar 24 02:06:32 2021
Timers Off: Wed Mar 24 02:06:34 2021

Wall Time:        2.47 seconds

                                                       Time (seconds)
Module                                       User      System        Wall        Calls

--------------------------------------------------------------------------------------

**************************************************************************************

Host: c4-63

Timers On : Wed Mar 24 02:07:03 2021
Timers Off: Wed Mar 24 02:07:06 2021

Wall Time:        2.69 seconds

                                                       Time (seconds)
Module                                       User      System        Wall        Calls

--------------------------------------------------------------------------------------

**************************************************************************************

Host: c4-63


Timers On : Wed Mar 24 02:07:03 2021

Timers Off: Wed Mar 24 02:07:06 2021
Host: c4-63
Host: c4-63



Wall Time:        2.69 seconds

                                                       Time (seconds)
Module                                       User      System        Wall        Calls

--------------------------------------------------------------------------------------

**************************************************************************************
Timers On : Wed Mar 24 02:07:03 2021
Timers On : Wed Mar 24 02:07:03 2021
Timers Off: Wed Mar 24 02:07:06 2021
Timers Off: Wed Mar 24 02:07:06 2021

Wall Time:        2.69 seconds


Wall Time:        2.69 seconds

                                                       Time (seconds)
                                                       Time (seconds)
Module                                       User      System        Wall        Calls
Module                                       User      System        Wall        Calls

--------------------------------------------------------------------------------------

--------------------------------------------------------------------------------------

**************************************************************************************

**************************************************************************************

Host: c4-70

Timers On : Wed Mar 24 02:07:15 2021
Timers Off: Wed Mar 24 02:07:17 2021

Wall Time:        2.79 seconds

                                                       Time (seconds)
Module                                       User      System        Wall        Calls

--------------------------------------------------------------------------------------

**************************************************************************************


Host: c4-70


Host: c4-70
Host: c4-70


Timers On : Wed Mar 24 02:07:15 2021
Timers On : Wed Mar 24 02:07:15 2021
Timers On : Wed Mar 24 02:07:15 2021
Timers Off: Wed Mar 24 02:07:17 2021
Timers Off: Wed Mar 24 02:07:17 2021
Timers Off: Wed Mar 24 02:07:17 2021

Wall Time:        2.79 seconds


Wall Time:        2.79 seconds


Wall Time:        2.78 seconds

                                                       Time (seconds)
                                                       Time (seconds)
                                                       Time (seconds)
Module                                       User      System        Wall        Calls
Module                                       User      System        Wall        Calls

--------------------------------------------------------------------------------------

--------------------------------------------------------------------------------------

**************************************************************************************
Module                                       User      System        Wall        Calls

**************************************************************************************

--------------------------------------------------------------------------------------

**************************************************************************************

Host: c4-71

Timers On : Wed Mar 24 02:07:34 2021
Timers Off: Wed Mar 24 02:07:37 2021

Wall Time:        2.87 seconds

                                                       Time (seconds)
Module                                       User      System        Wall        Calls

--------------------------------------------------------------------------------------

**************************************************************************************

Host: c4-71


Timers On : Wed Mar 24 02:07:34 2021
Timers Off: Wed Mar 24 02:07:37 2021
Host: c4-71



Wall Time:        2.87 seconds

Timers On : Wed Mar 24 02:07:34 2021
                                                       Time (seconds)
Host: c4-71
Module                                       User      System        Wall        Calls
Timers Off: Wed Mar 24 02:07:37 2021


--------------------------------------------------------------------------------------

Wall Time:        2.87 seconds


**************************************************************************************
                                                       Time (seconds)
Module                                       User      System        Wall        Calls
Timers On : Wed Mar 24 02:07:34 2021

--------------------------------------------------------------------------------------

**************************************************************************************
Timers Off: Wed Mar 24 02:07:37 2021

Wall Time:        2.87 seconds

                                                       Time (seconds)
Module                                       User      System        Wall        Calls

--------------------------------------------------------------------------------------

**************************************************************************************

Host: c4-78

Timers On : Wed Mar 24 02:07:45 2021
Timers Off: Wed Mar 24 02:07:47 2021

Wall Time:        2.28 seconds

                                                       Time (seconds)
Module                                       User      System        Wall        Calls

--------------------------------------------------------------------------------------

**************************************************************************************


Host: c4-78


Host: c4-78
Host: c4-78


Timers On : Wed Mar 24 02:07:45 2021
Timers On : Wed Mar 24 02:07:45 2021
Timers On : Wed Mar 24 02:07:45 2021
Timers Off: Wed Mar 24 02:07:47 2021
Timers Off: Wed Mar 24 02:07:47 2021
Timers Off: Wed Mar 24 02:07:47 2021

Wall Time:        2.28 seconds

                                                       Time (seconds)

Wall Time:        2.28 seconds

Module                                       User      System        Wall        Calls
                                                       Time (seconds)

Wall Time:        2.28 seconds


--------------------------------------------------------------------------------------
Module                                       User      System        Wall        Calls
                                                       Time (seconds)

**************************************************************************************

--------------------------------------------------------------------------------------
Module                                       User      System        Wall        Calls

**************************************************************************************

--------------------------------------------------------------------------------------

**************************************************************************************

Host: c4-79

Timers On : Wed Mar 24 02:07:54 2021

Timers Off: Wed Mar 24 02:07:56 2021
Host: c4-79


Wall Time:        2.09 seconds

                                                       Time (seconds)
Module                                       User      System        Wall        Calls

--------------------------------------------------------------------------------------

**************************************************************************************
Timers On : Wed Mar 24 02:07:54 2021
Timers Off: Wed Mar 24 02:07:56 2021

Wall Time:        2.09 seconds


                                                       Time (seconds)
Module                                       User      System        Wall        Calls

Host: c4-79

--------------------------------------------------------------------------------------


**************************************************************************************
Host: c4-79

Timers On : Wed Mar 24 02:07:54 2021
Timers On : Wed Mar 24 02:07:54 2021
Timers Off: Wed Mar 24 02:07:56 2021
Timers Off: Wed Mar 24 02:07:56 2021

Wall Time:        2.09 seconds

                                                       Time (seconds)
Module                                       User      System        Wall        Calls

Wall Time:        2.09 seconds


--------------------------------------------------------------------------------------
                                                       Time (seconds)

**************************************************************************************
Module                                       User      System        Wall        Calls

--------------------------------------------------------------------------------------

**************************************************************************************

Host: c4-80

Timers On : Wed Mar 24 02:08:09 2021
Timers Off: Wed Mar 24 02:08:12 2021

Wall Time:        2.64 seconds

                                                       Time (seconds)
Module                                       User      System        Wall        Calls

--------------------------------------------------------------------------------------

**************************************************************************************

Host: c4-80


Timers On : Wed Mar 24 02:08:09 2021
Timers Off: Wed Mar 24 02:08:12 2021
Host: c4-80


Wall Time:        2.64 seconds

                                                       Time (seconds)

Module                                       User      System        Wall        Calls

--------------------------------------------------------------------------------------

**************************************************************************************
Host: c4-80

Timers On : Wed Mar 24 02:08:09 2021
Timers Off: Wed Mar 24 02:08:12 2021

Wall Time:        2.64 seconds

                                                       Time (seconds)
Module                                       User      System        Wall        Calls

--------------------------------------------------------------------------------------
Timers On : Wed Mar 24 02:08:09 2021

**************************************************************************************
Timers Off: Wed Mar 24 02:08:12 2021

Wall Time:        2.64 seconds

                                                       Time (seconds)
Module                                       User      System        Wall        Calls

--------------------------------------------------------------------------------------

**************************************************************************************

Host: c8-55

Timers On : Wed Mar 24 02:09:00 2021
Timers Off: Wed Mar 24 02:09:03 2021

Wall Time:        2.72 seconds

                                                       Time (seconds)
Module                                       User      System        Wall        Calls

--------------------------------------------------------------------------------------

**************************************************************************************

Host: c8-55


Timers On : Wed Mar 24 02:09:00 2021

Host: c8-55
Timers Off: Wed Mar 24 02:09:03 2021

Host: c8-55

Wall Time:        2.72 seconds


                                                       Time (seconds)
Module                                       User      System        Wall        Calls

--------------------------------------------------------------------------------------

**************************************************************************************
Timers On : Wed Mar 24 02:09:00 2021
Timers Off: Wed Mar 24 02:09:03 2021
Timers On : Wed Mar 24 02:09:00 2021
Timers Off: Wed Mar 24 02:09:03 2021

Wall Time:        2.72 seconds

                                                       Time (seconds)
Module                                       User      System        Wall        Calls

--------------------------------------------------------------------------------------

Wall Time:        2.72 seconds


**************************************************************************************
                                                       Time (seconds)
Module                                       User      System        Wall        Calls

--------------------------------------------------------------------------------------

**************************************************************************************

Host: c4-63

Timers On : Wed Mar 24 11:34:30 2021
Timers Off: Wed Mar 24 11:34:33 2021

Wall Time:        3.07 seconds

                                                       Time (seconds)
Module                                       User      System        Wall        Calls

--------------------------------------------------------------------------------------

**************************************************************************************

Host: c4-70

Timers On : Wed Mar 24 11:34:30 2021
Timers Off: Wed Mar 24 11:34:33 2021

Wall Time:        2.76 seconds

                                                       Time (seconds)
Module                                       User      System        Wall        Calls

--------------------------------------------------------------------------------------

**************************************************************************************

Host: c4-71

Timers On : Wed Mar 24 11:34:33 2021
Timers Off: Wed Mar 24 11:34:36 2021

Wall Time:        2.91 seconds

                                                       Time (seconds)
Module                                       User      System        Wall        Calls

--------------------------------------------------------------------------------------

**************************************************************************************

Host: c4-78

Timers On : Wed Mar 24 11:34:38 2021
Timers Off: Wed Mar 24 11:34:41 2021

Wall Time:        2.89 seconds

                                                       Time (seconds)
Module                                       User      System        Wall        Calls

--------------------------------------------------------------------------------------

**************************************************************************************

Host: c8-71

Timers On : Wed Mar 24 11:34:42 2021
Timers Off: Wed Mar 24 11:34:47 2021

Wall Time:        4.26 seconds

                                                       Time (seconds)
Module                                       User      System        Wall        Calls

--------------------------------------------------------------------------------------

**************************************************************************************

Host: c4-79

Timers On : Wed Mar 24 11:34:43 2021
Timers Off: Wed Mar 24 11:34:48 2021

Wall Time:        4.83 seconds

                                                       Time (seconds)
Module                                       User      System        Wall        Calls

--------------------------------------------------------------------------------------

**************************************************************************************

Host: c8-72

Timers On : Wed Mar 24 11:34:46 2021
Timers Off: Wed Mar 24 11:34:49 2021

Wall Time:        2.77 seconds

                                                       Time (seconds)
Module                                       User      System        Wall        Calls

--------------------------------------------------------------------------------------

**************************************************************************************

Host: c8-55

Timers On : Wed Mar 24 11:34:46 2021
Timers Off: Wed Mar 24 11:34:49 2021

Wall Time:        2.67 seconds

                                                       Time (seconds)
Module                                       User      System        Wall        Calls

--------------------------------------------------------------------------------------

**************************************************************************************

Host: c8-73

Timers On : Wed Mar 24 11:34:46 2021
Timers Off: Wed Mar 24 11:34:49 2021

Wall Time:        2.70 seconds

                                                       Time (seconds)
Module                                       User      System        Wall        Calls

--------------------------------------------------------------------------------------

**************************************************************************************

Host: c8-56

Timers On : Wed Mar 24 11:34:50 2021
Timers Off: Wed Mar 24 11:34:52 2021

Wall Time:        2.57 seconds

                                                       Time (seconds)
Module                                       User      System        Wall        Calls

--------------------------------------------------------------------------------------

**************************************************************************************

Host: c8-55

Timers On : Thu Mar 25 18:06:52 2021
Timers Off: Thu Mar 25 18:06:56 2021

Wall Time:        3.74 seconds

                                                       Time (seconds)
Module                                       User      System        Wall        Calls

--------------------------------------------------------------------------------------

**************************************************************************************

Host: c5-80

Timers On : Thu Mar 25 18:16:30 2021
Timers Off: Thu Mar 25 18:16:33 2021

Wall Time:        3.50 seconds

                                                       Time (seconds)
Module                                       User      System        Wall        Calls

--------------------------------------------------------------------------------------

**************************************************************************************
