3    
Energy : -93.4051584 Hartree
C        0.9490362079    0.0000000000    0.0000000000
N        2.1244487939    0.0000000000    0.0000000000
H        3.1267711925    0.0000000000    0.0000000000
