3    
Image 0/21, Energy =   -93.4051520129 (+14.706 kcal/mol)
C       -0.7519862184   -0.8272338399    0.0000000000
N        0.0394753354    0.0434721365    0.0000000000
H        0.7125108830    0.7837617034    0.0000000000
3    
Image 1/21, Energy =   -93.4025219506 (+16.356 kcal/mol)
C       -0.6528522135   -0.8796878518    0.0000000000
N       -0.0842476862    0.1530368591    0.0000000000
H        0.7370801830    0.7266799513   -0.0000000000
3    
Image 2/21, Energy =   -93.3986058246 (+18.814 kcal/mol)
C       -0.5331831454   -0.9230121311   -0.0000000000
N       -0.1653021788    0.2018040914    0.0000000000
H        0.6984427538    0.7212379655    0.0000000000
3    
Image 3/21, Energy =   -93.3927511546 (+22.488 kcal/mol)
C       -0.4000273593   -0.9407568156    0.0000000000
N       -0.2483130732    0.2381778260    0.0000000000
H        0.6483025861    0.7026120554   -0.0000000000
3    
Image 4/21, Energy =   -93.3783151726 (+31.546 kcal/mol)
C       -0.2351719011   -0.8875378471   -0.0000000000
N       -0.3792210654    0.3023829050    0.0000000000
H        0.6143634118    0.5851823393   -0.0000000000
3    
Image 5/21, Energy =   -93.3625754308 (+41.423 kcal/mol)
C       -0.1075636297   -0.7788363594   -0.0000000000
N       -0.5036633808    0.3554373207    0.0000000000
H        0.6112139458    0.4234366341   -0.0000000000
3    
Image 6/21, Energy =   -93.3550414794 (+46.151 kcal/mol)
C       -0.0566644822   -0.7166448919    0.0000000000
N       -0.5836730978    0.3591458287    0.0000000000
H        0.6403055637    0.3575379003   -0.0000000000
3    
Image 7/21, Energy =   -93.3505168513 (+48.990 kcal/mol)
C       -0.0210436258   -0.6435086511    0.0000000000
N       -0.6882246404    0.3486347709    0.0000000000
H        0.7092217913    0.2949198214   -0.0000000000
3    
Image 8/21, Energy =   -93.3748999359 (+33.689 kcal/mol)
C        0.0110016170   -0.4693803073    0.0000000000
N       -0.8864290090    0.2791335026    0.0000000000
H        0.8754142897    0.1902976083   -0.0000000000
3    
Image 9/21, Energy =   -93.4059336211 (+14.215 kcal/mol)
C        0.0202664959   -0.3054877211    0.0000000000
N       -1.0209236564    0.2145618957    0.0000000000
H        1.0006505230    0.0910051323   -0.0000000000
3    
Image 10/21, Energy =   -93.4247694423 (+2.396 kcal/mol)
C        0.0257298897   -0.1275792623   -0.0000000000
N       -1.1056255087    0.1411408790    0.0000000000
H        1.0798893460   -0.0134978352   -0.0000000000
3    
Image 11/21, Energy =   -93.4285655648 (+0.014 kcal/mol)
C        0.0287855151    0.0024966520    0.0000000000
N       -1.1280748240   -0.0879855379   -0.0000000000
H        1.0992769735    0.0855000812   -0.0000000000
3    
Image 12/21, Energy =   -93.4285093121 (+0.049 kcal/mol)
C        0.0237610169    0.0240021188   -0.0000000000
N       -1.0990137012   -0.2609710486    0.0000000000
H        1.0752277613    0.2369622366   -0.0000000000
3    
Image 13/21, Energy =   -93.4285408711 (+0.029 kcal/mol)
C        0.0229433119    0.0219399529   -0.0000000000
N       -1.0595987578   -0.3934309741   -0.0000000000
H        1.0366217271    0.3714701373   -0.0000000000
3    
Image 14/21, Energy =   -93.4285698387 (+0.011 kcal/mol)
C        0.0208174734    0.0189925828    0.0000000000
N       -0.9875822550   -0.5473936910    0.0000000000
H        0.9667525148    0.5283705874    0.0000000000
3    
Image 15/21, Energy =   -93.4285797090 (+0.005 kcal/mol)
C        0.0204203050    0.0187693653   -0.0000000000
N       -0.9087496791   -0.6699311671    0.0000000000
H        0.8883305626    0.6511265299   -0.0000000000
3    
Image 16/21, Energy =   -93.4285839491 (+0.002 kcal/mol)
C        0.0211800777    0.0190115941   -0.0000000000
N       -0.8314745780   -0.7652243755   -0.0000000000
H        0.8102880784    0.7461895195   -0.0000000000
3    
Image 17/21, Energy =   -93.4285873953 (+0.000 kcal/mol)
C        0.0224861176    0.0177546168    0.0000000000
N       -0.9084407957   -0.6701002531    0.0000000000
H        0.8859651376    0.6523076949    0.0000000000
3    
Image 18/21, Energy =   -93.4285868205 (+0.000 kcal/mol)
C        0.0240066958    0.0158998272   -0.0000000000
N       -0.9721647971   -0.5732657673    0.0000000000
H        0.9481446251    0.5573352202    0.0000000000
3    
Image 19/21, Energy =   -93.4285795040 (+0.005 kcal/mol)
C        0.0204117965    0.0216349755   -0.0000000000
N       -0.8714756247   -0.7180322164    0.0000000000
H        0.8510669537    0.6963622868    0.0000000000
3    
Image 20/21, Energy =   -93.4285861953 (+0.001 kcal/mol)
C        0.0194260556    0.0213642891    0.0000000000
N       -0.7589320377   -0.8347584640    0.0000000000
H        0.7395059821    0.8133941749    0.0000000000
