3    
Image 0/21, Energy =   -93.4051520129 (+14.706 kcal/mol)
C       -0.7519862184   -0.8272338399    0.0000000000
N        0.0394753354    0.0434721365    0.0000000000
H        0.7125108830    0.7837617034    0.0000000000
3    
Image 1/21, Energy =   -93.4051570045 (+14.703 kcal/mol)
C       -0.6546356002   -0.9059112643   -0.0000000000
N        0.0308398158    0.0489802322   -0.0000000000
H        0.6238017550    0.8569739787   -0.0000000000
3    
Image 2/21, Energy =   -93.4034787330 (+15.756 kcal/mol)
C       -0.4610355629   -1.0017000624   -0.0000000000
N       -0.0874593206    0.1145834071    0.0000000000
H        0.5484310347    0.8872073405   -0.0000000000
3    
Image 3/21, Energy =   -93.3940471133 (+21.674 kcal/mol)
C       -0.3491837996   -0.9705510562   -0.0000000000
N       -0.2486905691    0.2132727454    0.0000000000
H        0.5977921602    0.7573260882   -0.0000000000
3    
Image 4/21, Energy =   -93.3784402122 (+31.468 kcal/mol)
C       -0.2247401596   -0.8916968692    0.0000000000
N       -0.3827660122    0.2972756682    0.0000000000
H        0.6074414164    0.5944766344   -0.0000000000
3    
Image 5/21, Energy =   -93.3630930132 (+41.098 kcal/mol)
C       -0.1109476136   -0.7838102170    0.0000000000
N       -0.5017463767    0.3522248816   -0.0000000000
H        0.6126215177    0.4316626237    0.0000000000
3    
Image 6/21, Energy =   -93.3558679882 (+45.632 kcal/mol)
C       -0.0644050140   -0.7249661907    0.0000000000
N       -0.5746709450    0.3589716678   -0.0000000000
H        0.6390125727    0.3660697724    0.0000000000
3    
Image 7/21, Energy =   -93.3505450071 (+48.972 kcal/mol)
C       -0.0256470082   -0.6477184393    0.0000000000
N       -0.6795216459    0.3478247087   -0.0000000000
H        0.7051185044    0.2999670444   -0.0000000000
3    
Image 8/21, Energy =   -93.3735788062 (+34.519 kcal/mol)
C        0.0070482643   -0.4769532017    0.0000000000
N       -0.8786035895    0.2902265596   -0.0000000000
H        0.8715270518    0.1867956557    0.0000000000
3    
Image 9/21, Energy =   -93.4062338193 (+14.027 kcal/mol)
C        0.0171941702   -0.3033195744    0.0000000000
N       -1.0199531031    0.2164155301   -0.0000000000
H        1.0027272037    0.0870086890    0.0000000000
3    
Image 10/21, Energy =   -93.4253256038 (+2.047 kcal/mol)
C        0.0235117251   -0.1188015628    0.0000000000
N       -1.1061433123    0.1280893683    0.0000000000
H        1.0826074550   -0.0092184585   -0.0000000000
3    
Image 11/21, Energy =   -93.4285870615 (+0.000 kcal/mol)
C        0.0287464214    0.0020850596    0.0000000000
N       -1.1258684725   -0.0862580533    0.0000000000
H        1.0970817153    0.0841855021   -0.0000000000
3    
Image 12/21, Energy =   -93.4285874427 (+0.000 kcal/mol)
C        0.0278825868    0.0064106544   -0.0000000000
N       -1.1028595341   -0.2420542342    0.0000000000
H        1.0749399602    0.2356437996   -0.0000000000
3    
Image 13/21, Energy =   -93.4285812480 (+0.004 kcal/mol)
C        0.0287680626    0.0048033755   -0.0000000000
N       -1.0632437185   -0.3787478608   -0.0000000000
H        1.0344146509    0.3739236976   -0.0000000000
3    
Image 14/21, Energy =   -93.4285837632 (+0.002 kcal/mol)
C        0.0270868507    0.0101215811    0.0000000000
N       -0.9921130937   -0.5386139324    0.0000000000
H        0.9649924419    0.5284571348    0.0000000000
3    
Image 15/21, Energy =   -93.4285867697 (+0.001 kcal/mol)
C        0.0242207014    0.0153429129   -0.0000000000
N       -0.9118178113   -0.6654979076    0.0000000000
H        0.8875788957    0.6501100035   -0.0000000000
3    
Image 16/21, Energy =   -93.4285875901 (+0.000 kcal/mol)
C        0.0209913142    0.0194212793   -0.0000000000
N       -0.8357704663   -0.7588414100   -0.0000000000
H        0.8147580849    0.7393817664   -0.0000000000
3    
Image 17/21, Energy =   -93.4285873953 (+0.000 kcal/mol)
C        0.0224861176    0.0177546168    0.0000000000
N       -0.9084407957   -0.6701002531    0.0000000000
H        0.8859651376    0.6523076949    0.0000000000
3    
Image 18/21, Energy =   -93.4285868205 (+0.000 kcal/mol)
C        0.0240066958    0.0158998272   -0.0000000000
N       -0.9721647971   -0.5732657673    0.0000000000
H        0.9481446251    0.5573352202    0.0000000000
3    
Image 19/21, Energy =   -93.4285862262 (+0.001 kcal/mol)
C        0.0236923966    0.0162592029    0.0000000000
N       -0.8737111147   -0.7147610875    0.0000000000
H        0.8500032010    0.6984577124    0.0000000000
3    
Image 20/21, Energy =   -93.4285861953 (+0.001 kcal/mol)
C        0.0194260556    0.0213642891    0.0000000000
N       -0.7589320377   -0.8347584640    0.0000000000
H        0.7395059821    0.8133941749    0.0000000000
