3    
Image 0/21, Energy =   -93.4051520129 (+14.706 kcal/mol)
C       -0.7519862184   -0.8272338399    0.0000000000
N        0.0394753354    0.0434721365    0.0000000000
H        0.7125108830    0.7837617034    0.0000000000
3    
Image 1/21, Energy =   -93.4051074711 (+14.734 kcal/mol)
C       -0.6576690727   -0.9035877047   -0.0000000000
N        0.0158455068    0.0596316123   -0.0000000000
H        0.6418257972    0.8440009221   -0.0000000000
3    
Image 2/21, Energy =   -93.4032050305 (+15.928 kcal/mol)
C       -0.4738142547   -0.9944716296   -0.0000000000
N       -0.0945783084    0.1215962673    0.0000000000
H        0.5683260278    0.8729618933   -0.0000000000
3    
Image 3/21, Energy =   -93.3940471133 (+21.674 kcal/mol)
C       -0.3491837996   -0.9705510562   -0.0000000000
N       -0.2486905691    0.2132727454    0.0000000000
H        0.5977921602    0.7573260882   -0.0000000000
3    
Image 4/21, Energy =   -93.3784360188 (+31.471 kcal/mol)
C       -0.2242589958   -0.8918971009   -0.0000000000
N       -0.3831110771    0.2971424040    0.0000000000
H        0.6073116210    0.5948067827   -0.0000000000
3    
Image 5/21, Energy =   -93.3631142733 (+41.085 kcal/mol)
C       -0.1088289132   -0.7845981527    0.0000000000
N       -0.5026627904    0.3511270874    0.0000000000
H        0.6114199748    0.4335414150    0.0000000000
3    
Image 6/21, Energy =   -93.3557782146 (+45.689 kcal/mol)
C       -0.0635059184   -0.7247052024    0.0000000000
N       -0.5757206996    0.3601375563   -0.0000000000
H        0.6391570925    0.3646357019    0.0000000000
3    
Image 7/21, Energy =   -93.3505450071 (+48.972 kcal/mol)
C       -0.0256470082   -0.6477184393    0.0000000000
N       -0.6795216459    0.3478247087   -0.0000000000
H        0.7051185044    0.2999670444   -0.0000000000
3    
Image 8/21, Energy =   -93.3735788062 (+34.519 kcal/mol)
C        0.0070482643   -0.4769532017    0.0000000000
N       -0.8786035895    0.2902265596   -0.0000000000
H        0.8715270518    0.1867956557    0.0000000000
3    
Image 9/21, Energy =   -93.4060870626 (+14.119 kcal/mol)
C        0.0182748599   -0.3042651805    0.0000000000
N       -1.0201722353    0.2130144117    0.0000000000
H        1.0018661169    0.0913503568    0.0000000000
3    
Image 10/21, Energy =   -93.4254125151 (+1.992 kcal/mol)
C        0.0240982429   -0.1172346501    0.0000000000
N       -1.1072316336    0.1232852535    0.0000000000
H        1.0831098976   -0.0059835750   -0.0000000000
3    
Image 11/21, Energy =   -93.4285847587 (+0.002 kcal/mol)
C        0.0288424244   -0.0011688073    0.0000000000
N       -1.1259666869   -0.0844135310    0.0000000000
H        1.0970906210    0.0855961814   -0.0000000000
3    
Image 12/21, Energy =   -93.4285874427 (+0.000 kcal/mol)
C        0.0278825868    0.0064106544   -0.0000000000
N       -1.1028595341   -0.2420542342    0.0000000000
H        1.0749399602    0.2356437996   -0.0000000000
3    
Image 13/21, Energy =   -93.4285715817 (+0.010 kcal/mol)
C        0.0297541320    0.0018376726   -0.0000000000
N       -1.0641595787   -0.3760064795   -0.0000000000
H        1.0343496941    0.3741516525   -0.0000000000
3    
Image 14/21, Energy =   -93.4285837632 (+0.002 kcal/mol)
C        0.0270868507    0.0101215811    0.0000000000
N       -0.9921130937   -0.5386139324    0.0000000000
H        0.9649924419    0.5284571348    0.0000000000
3    
Image 15/21, Energy =   -93.4285867697 (+0.001 kcal/mol)
C        0.0242207014    0.0153429129   -0.0000000000
N       -0.9118178113   -0.6654979076    0.0000000000
H        0.8875788957    0.6501100035   -0.0000000000
3    
Image 16/21, Energy =   -93.4285875901 (+0.000 kcal/mol)
C        0.0209913142    0.0194212793   -0.0000000000
N       -0.8357704663   -0.7588414100   -0.0000000000
H        0.8147580849    0.7393817664   -0.0000000000
3    
Image 17/21, Energy =   -93.4285873953 (+0.000 kcal/mol)
C        0.0224861176    0.0177546168    0.0000000000
N       -0.9084407957   -0.6701002531    0.0000000000
H        0.8859651376    0.6523076949    0.0000000000
3    
Image 18/21, Energy =   -93.4285868205 (+0.000 kcal/mol)
C        0.0240066958    0.0158998272   -0.0000000000
N       -0.9721647971   -0.5732657673    0.0000000000
H        0.9481446251    0.5573352202    0.0000000000
3    
Image 19/21, Energy =   -93.4285862262 (+0.001 kcal/mol)
C        0.0236923966    0.0162592029    0.0000000000
N       -0.8737111147   -0.7147610875    0.0000000000
H        0.8500032010    0.6984577124    0.0000000000
3    
Image 20/21, Energy =   -93.4285861953 (+0.001 kcal/mol)
C        0.0194260556    0.0213642891    0.0000000000
N       -0.7589320377   -0.8347584640    0.0000000000
H        0.7395059821    0.8133941749    0.0000000000
