3    
Image 0/21, Energy =   -93.4051520129 (+14.705 kcal/mol)
C       -0.7519862184   -0.8272338399    0.0000000000
N        0.0394753354    0.0434721365    0.0000000000
H        0.7125108830    0.7837617034    0.0000000000
3    
Image 1/21, Energy =   -93.4020207875 (+16.670 kcal/mol)
C       -0.6689601187   -0.8618120684   -0.0000000000
N       -0.0898583950    0.1651907718    0.0000000000
H        0.7588184514    0.6966357625   -0.0000000000
3    
Image 2/21, Energy =   -93.3949310295 (+21.119 kcal/mol)
C       -0.5640978177   -0.8715751961    0.0000000000
N       -0.1876508737    0.2547687666    0.0000000000
H        0.7517231389    0.6168202700    0.0000000000
3    
Image 3/21, Energy =   -93.3877707535 (+25.612 kcal/mol)
C       -0.4531653307   -0.8778459839    0.0000000000
N       -0.2610374153    0.3018181818    0.0000000000
H        0.7141800518    0.5760390097    0.0000000000
3    
Image 4/21, Energy =   -93.3766147762 (+32.613 kcal/mol)
C       -0.2741422950   -0.8653541072    0.0000000000
N       -0.3741141769    0.3345449994    0.0000000000
H        0.6482499219    0.5308240154   -0.0000000000
3    
Image 5/21, Energy =   -93.3620241887 (+41.768 kcal/mol)
C       -0.1121898918   -0.7806989721    0.0000000000
N       -0.5158913314    0.3518182316    0.0000000000
H        0.6280820011    0.4288918952   -0.0000000000
3    
Image 6/21, Energy =   -93.3547961689 (+46.304 kcal/mol)
C       -0.0649149426   -0.7195114745    0.0000000000
N       -0.5884291337    0.3573823312    0.0000000000
H        0.6533335430    0.3621455244   -0.0000000000
3    
Image 7/21, Energy =   -93.3534784903 (+47.131 kcal/mol)
C       -0.0128287912   -0.5974292923    0.0000000000
N       -0.7530674345    0.3288069021    0.0000000000
H        0.7658782153    0.2686569880   -0.0000000000
3    
Image 8/21, Energy =   -93.3746689477 (+33.834 kcal/mol)
C        0.0066152514   -0.4739514347   -0.0000000000
N       -0.8853660986    0.2881885861    0.0000000000
H        0.8787614016    0.1857949392   -0.0000000000
3    
Image 9/21, Energy =   -93.4044832194 (+15.125 kcal/mol)
C        0.0191984953   -0.3152081549   -0.0000000000
N       -1.0147129301    0.2167182873    0.0000000000
H        0.9955373713    0.0985294563   -0.0000000000
3    
Image 10/21, Energy =   -93.4205295737 (+5.056 kcal/mol)
C        0.0329763640   -0.1839337331   -0.0000000000
N       -1.0931632902    0.0751200079    0.0000000000
H        1.0601894029    0.1088511031   -0.0000000000
3    
Image 11/21, Energy =   -93.4262819495 (+1.446 kcal/mol)
C        0.0460708172   -0.0917366838    0.0000000000
N       -1.1163999891   -0.0964704721   -0.0000000000
H        1.0703137982    0.1882425452   -0.0000000000
3    
Image 12/21, Energy =   -93.4276833800 (+0.567 kcal/mol)
C        0.0444402495   -0.0527879680   -0.0000000000
N       -1.0999928449   -0.2405107200    0.0000000000
H        1.0555293418    0.2933135948   -0.0000000000
3    
Image 13/21, Energy =   -93.4281787021 (+0.256 kcal/mol)
C        0.0435885669   -0.0223254278   -0.0000000000
N       -1.0636839365   -0.3758356619   -0.0000000000
H        1.0200641827    0.3981589041   -0.0000000000
3    
Image 14/21, Energy =   -93.4284615030 (+0.078 kcal/mol)
C        0.0363735930   -0.0003496588    0.0000000000
N       -0.9900532395   -0.5373572609    0.0000000000
H        0.9536713450    0.5376909652    0.0000000000
3    
Image 15/21, Energy =   -93.4285413355 (+0.028 kcal/mol)
C        0.0297499938    0.0118026511   -0.0000000000
N       -0.9097591976   -0.6652852074    0.0000000000
H        0.8800161683    0.6534581631   -0.0000000000
3    
Image 16/21, Energy =   -93.4285533568 (+0.021 kcal/mol)
C        0.0216231417    0.0211439718   -0.0000000000
N       -0.8262295438   -0.7646420913    0.0000000000
H        0.8046085712    0.7434822660   -0.0000000000
3    
Image 17/21, Energy =   -93.4285152004 (+0.045 kcal/mol)
C        0.0337135200    0.0033391335    0.0000000000
N       -0.9135017015   -0.6639115750    0.0000000000
H        0.8797997979    0.6605448443   -0.0000000000
3    
Image 18/21, Energy =   -93.4283754376 (+0.132 kcal/mol)
C        0.0398118912   -0.0110235213   -0.0000000000
N       -0.9802265617   -0.5617939730    0.0000000000
H        0.9403983486    0.5728012821    0.0000000000
3    
Image 19/21, Energy =   -93.4285408631 (+0.028 kcal/mol)
C        0.0274157273    0.0087336937   -0.0000000000
N       -0.8752274189   -0.7124020972   -0.0000000000
H        0.8478193160    0.7036452018    0.0000000000
3    
Image 20/21, Energy =   -93.4285861953 (+0.000 kcal/mol)
C        0.0194260556    0.0213642891    0.0000000000
N       -0.7589320377   -0.8347584640    0.0000000000
H        0.7395059821    0.8133941749    0.0000000000
