3    
Image 0/21, Energy =   -93.4051520129 (+14.705 kcal/mol)
C       -0.7519862184   -0.8272338399    0.0000000000
N        0.0394753354    0.0434721365    0.0000000000
H        0.7125108830    0.7837617034    0.0000000000
3    
Image 1/21, Energy =   -93.4021852037 (+16.567 kcal/mol)
C       -0.6745208012   -0.8603484727   -0.0000000000
N       -0.0868992297    0.1624601486    0.0000000000
H        0.7614242740    0.6978988625   -0.0000000000
3    
Image 2/21, Energy =   -93.3947832450 (+21.212 kcal/mol)
C       -0.5790947656   -0.8572946961    0.0000000000
N       -0.1811715709    0.2576885863   -0.0000000000
H        0.7602528404    0.5996154112    0.0000000000
3    
Image 3/21, Energy =   -93.3845242589 (+27.649 kcal/mol)
C       -0.4583065481   -0.8607430542    0.0000000000
N       -0.2762947597    0.3358646811   -0.0000000000
H        0.7345795723    0.5248888963    0.0000000000
3    
Image 4/21, Energy =   -93.3762346966 (+32.851 kcal/mol)
C       -0.2941535142   -0.8595648942    0.0000000000
N       -0.3635060044    0.3491457277    0.0000000000
H        0.6576620922    0.5104313440   -0.0000000000
3    
Image 5/21, Energy =   -93.3581118843 (+44.223 kcal/mol)
C       -0.0726780564   -0.7606422238    0.0000000000
N       -0.4957471897    0.3688704699    0.0000000000
H        0.5684219120    0.3917800932   -0.0000000000
3    
Image 6/21, Energy =   -93.3531745498 (+47.322 kcal/mol)
C       -0.0416747373   -0.6985856936    0.0000000000
N       -0.5831050233    0.3710164061    0.0000000000
H        0.6247712990    0.3275772588    0.0000000000
3    
Image 7/21, Energy =   -93.3526903356 (+47.625 kcal/mol)
C        0.0111028534   -0.5836115716   -0.0000000000
N       -0.7507841671    0.3302458824    0.0000000000
H        0.7396720397    0.2533976736   -0.0000000000
3    
Image 8/21, Energy =   -93.3743079963 (+34.060 kcal/mol)
C        0.0155506981   -0.4667795988   -0.0000000000
N       -0.8832157747    0.2978793593    0.0000000000
H        0.8676860079    0.1689223905    0.0000000000
3    
Image 9/21, Energy =   -93.4038381348 (+15.530 kcal/mol)
C        0.0269829314   -0.3197494461   -0.0000000000
N       -1.0213187417    0.2117113612    0.0000000000
H        0.9943674254    0.1080620361   -0.0000000000
3    
Image 10/21, Energy =   -93.4155424503 (+8.185 kcal/mol)
C        0.0424614887   -0.2266890157    0.0000000000
N       -1.0709914413    0.0569624253    0.0000000000
H        1.0285370687    0.1697582892   -0.0000000000
3    
Image 11/21, Energy =   -93.4232119783 (+3.372 kcal/mol)
C        0.0579400459   -0.1336285852    0.0000000000
N       -1.1206641408   -0.0977865106   -0.0000000000
H        1.0627067120    0.2314545424   -0.0000000000
3    
Image 12/21, Energy =   -93.4260665436 (+1.581 kcal/mol)
C        0.0562922848   -0.0915836305   -0.0000000000
N       -1.1000788581   -0.2318954372   -0.0000000000
H        1.0437623436    0.3235012773   -0.0000000000
3    
Image 13/21, Energy =   -93.4267682062 (+1.141 kcal/mol)
C        0.0546445238   -0.0495386759   -0.0000000000
N       -1.0794935754   -0.3660043637   -0.0000000000
H        1.0248179752    0.4155480122   -0.0000000000
3    
Image 14/21, Energy =   -93.4277873223 (+0.501 kcal/mol)
C        0.0401135903   -0.0156158278    0.0000000000
N       -1.0071029760   -0.5386184458    0.0000000000
H        0.9669802960    0.5542241162    0.0000000000
3    
Image 15/21, Energy =   -93.4281933119 (+0.247 kcal/mol)
C        0.0310733182    0.0041998571   -0.0000000000
N       -0.9221652363   -0.6698402677    0.0000000000
H        0.8910992362    0.6656198924   -0.0000000000
3    
Image 16/21, Energy =   -93.4282524219 (+0.209 kcal/mol)
C        0.0151777497    0.0167506884   -0.0000000000
N       -0.8335786263   -0.7746595511   -0.0000000000
H        0.8184052862    0.7578947077   -0.0000000000
3    
Image 17/21, Energy =   -93.4283495867 (+0.148 kcal/mol)
C        0.0427313173   -0.0060127406    0.0000000000
N       -0.9161607033   -0.6591263521    0.0000000000
H        0.8734403527    0.6651168749   -0.0000000000
3    
Image 18/21, Energy =   -93.4279018508 (+0.429 kcal/mol)
C        0.0540082075   -0.0271868969    0.0000000000
N       -0.9804868828   -0.5508672655    0.0000000000
H        0.9264597528    0.5780453485    0.0000000000
3    
Image 19/21, Energy =   -93.4282725058 (+0.197 kcal/mol)
C        0.0315713322    0.0020436193    0.0000000000
N       -0.8732780449   -0.7037310872   -0.0000000000
H        0.8417146826    0.7016682326    0.0000000000
3    
Image 20/21, Energy =   -93.4285861953 (+0.000 kcal/mol)
C        0.0194260556    0.0213642891    0.0000000000
N       -0.7589320377   -0.8347584640    0.0000000000
H        0.7395059821    0.8133941749    0.0000000000
