3    
Image 0/21, Energy =   -93.4051520129 (+14.706 kcal/mol)
C       -0.7519862184   -0.8272338399    0.0000000000
N        0.0394753354    0.0434721365    0.0000000000
H        0.7125108830    0.7837617034    0.0000000000
3    
Image 1/21, Energy =   -93.4027705658 (+16.200 kcal/mol)
C       -0.6513570017   -0.8835343681    0.0000000000
N       -0.0796233672    0.1473947496    0.0000000000
H        0.7309582124    0.7361705944   -0.0000000000
3    
Image 2/21, Energy =   -93.3993370166 (+18.355 kcal/mol)
C       -0.5295141459   -0.9320133441   -0.0000000000
N       -0.1572717358    0.1916872741    0.0000000000
H        0.6867428989    0.7403616787    0.0000000000
3    
Image 3/21, Energy =   -93.3932269777 (+22.189 kcal/mol)
C       -0.3891255925   -0.9493790424   -0.0000000000
N       -0.2467750385    0.2315233104    0.0000000000
H        0.6358571163    0.7178922600   -0.0000000000
3    
Image 4/21, Energy =   -93.3784053938 (+31.490 kcal/mol)
C       -0.2299072359   -0.8893225308   -0.0000000000
N       -0.3805830255    0.2990046821    0.0000000000
H        0.6104567072    0.5903481900   -0.0000000000
3    
Image 5/21, Energy =   -93.3626244002 (+41.392 kcal/mol)
C       -0.1076903825   -0.7795842587   -0.0000000000
N       -0.5042652831    0.3546671723    0.0000000000
H        0.6119389565    0.4249590043   -0.0000000000
3    
Image 6/21, Energy =   -93.3551994155 (+46.052 kcal/mol)
C       -0.0567444832   -0.7180100210    0.0000000000
N       -0.5815335249    0.3596365990    0.0000000000
H        0.6382413716    0.3584157525   -0.0000000000
3    
Image 7/21, Energy =   -93.3505346827 (+48.979 kcal/mol)
C       -0.0243464519   -0.6495864367    0.0000000000
N       -0.6772880153    0.3493674722    0.0000000000
H        0.7015845365    0.3002665511   -0.0000000000
3    
Image 8/21, Energy =   -93.3746372920 (+33.854 kcal/mol)
C        0.0123498737   -0.4721996135    0.0000000000
N       -0.8866277670    0.2815636809    0.0000000000
H        0.8742612181    0.1906889143   -0.0000000000
3    
Image 9/21, Energy =   -93.4063096963 (+13.979 kcal/mol)
C        0.0186987430   -0.3024557897    0.0000000000
N       -1.0209947289    0.2116263717    0.0000000000
H        1.0022849841    0.0909134327   -0.0000000000
3    
Image 10/21, Energy =   -93.4250892648 (+2.195 kcal/mol)
C        0.0190484794   -0.1210393952   -0.0000000000
N       -1.1010326771    0.1434317395    0.0000000000
H        1.0819765153   -0.0223257464   -0.0000000000
3    
Image 11/21, Energy =   -93.4285597363 (+0.017 kcal/mol)
C        0.0266239829    0.0110410732    0.0000000000
N       -1.1254906132   -0.0861512212    0.0000000000
H        1.0988537683    0.0751187084   -0.0000000000
3    
Image 12/21, Energy =   -93.4284571057 (+0.082 kcal/mol)
C        0.0223255256    0.0293004652   -0.0000000000
N       -1.0978777557   -0.2605397901    0.0000000000
H        1.0755262675    0.2312310622    0.0000000000
3    
Image 13/21, Energy =   -93.4285238370 (+0.040 kcal/mol)
C        0.0207078538    0.0246208520   -0.0000000000
N       -1.0575948455   -0.3931323575   -0.0000000000
H        1.0368522125    0.3684891280   -0.0000000000
3    
Image 14/21, Energy =   -93.4285660067 (+0.013 kcal/mol)
C        0.0217441731    0.0213192686    0.0000000000
N       -0.9879147354   -0.5479812135    0.0000000000
H        0.9661568551    0.5266299008    0.0000000000
3    
Image 15/21, Energy =   -93.4285793213 (+0.005 kcal/mol)
C        0.0213769142    0.0203610505   -0.0000000000
N       -0.9092372211   -0.6703837234    0.0000000000
H        0.8878600058    0.6499859811   -0.0000000000
3    
Image 16/21, Energy =   -93.4285864055 (+0.001 kcal/mol)
C        0.0210130650    0.0187550406   -0.0000000000
N       -0.8310791680   -0.7639683571   -0.0000000000
H        0.8100582257    0.7451886777   -0.0000000000
3    
Image 17/21, Energy =   -93.4285873953 (+0.000 kcal/mol)
C        0.0224861176    0.0177546168    0.0000000000
N       -0.9084407957   -0.6701002531    0.0000000000
H        0.8859651376    0.6523076949    0.0000000000
3    
Image 18/21, Energy =   -93.4285868205 (+0.000 kcal/mol)
C        0.0240066958    0.0158998272   -0.0000000000
N       -0.9721647971   -0.5732657673    0.0000000000
H        0.9481446251    0.5573352202    0.0000000000
3    
Image 19/21, Energy =   -93.4285756948 (+0.007 kcal/mol)
C        0.0185264211    0.0212842235   -0.0000000000
N       -0.8702836710   -0.7176510450    0.0000000000
H        0.8517590666    0.6963304105    0.0000000000
3    
Image 20/21, Energy =   -93.4285861953 (+0.001 kcal/mol)
C        0.0194260556    0.0213642891    0.0000000000
N       -0.7589320377   -0.8347584640    0.0000000000
H        0.7395059821    0.8133941749    0.0000000000
