3    
Iteration 0 Energy -93.35521309
C        0.8934657239   -0.5265201380    0.0000000000
N       -0.2322139459   -0.1375591820    0.0000000000
H        0.9127187149    0.6641823244    0.0000000000
3    
Iteration 1 Energy -93.35622642
C        0.8963502318   -0.5351181298    0.0000000000
N       -0.2274988861   -0.1315588053    0.0000000000
H        0.8128271926    0.6832505302   -0.0000000000
3    
Iteration 1 Energy -93.35750698
C        0.8977634564   -0.5395171786    0.0000000000
N       -0.2247842961   -0.1283182204    0.0000000000
H        0.7582623304    0.6906322978   -0.0000000000
3    
Iteration 1 Energy -93.35921890
C        0.8992883522   -0.5443442344    0.0000000000
N       -0.2221342931   -0.1250596814    0.0000000000
H        0.7032643778    0.7028680140   -0.0000000000
3    
Iteration 1 Energy -93.36122552
C        0.9007100412   -0.5491224346    0.0000000000
N       -0.2193078631   -0.1217579865    0.0000000000
H        0.6470437186    0.7139217609   -0.0000000000
3    
Iteration 1 Energy -93.36338084
C        0.9020516822   -0.5540892502    0.0000000000
N       -0.2164509338   -0.1185740321    0.0000000000
H        0.5913546993    0.7288577889   -0.0000000000
3    
Iteration 1 Energy -93.36557459
C        0.9032439348   -0.5591181629    0.0000000000
N       -0.2135171746   -0.1155341628    0.0000000000
H        0.5363821357    0.7465357397   -0.0000000000
3    
Iteration 1 Energy -93.36775823
C        0.9042535837   -0.5641759286    0.0000000000
N       -0.2104990513   -0.1126811052    0.0000000000
H        0.4824173812    0.7671599089   -0.0000000000
3    
Iteration 1 Energy -93.36992876
C        0.9050638937   -0.5691999292    0.0000000000
N       -0.2073552513   -0.1099777105    0.0000000000
H        0.4290769861    0.7894652594   -0.0000000000
3    
Iteration 1 Energy -93.37210240
C        0.9056839069   -0.5741600634    0.0000000000
N       -0.2040578876   -0.1073627485    0.0000000000
H        0.3758643450    0.8122337934   -0.0000000000
3    
Iteration 1 Energy -93.37429395
C        0.9061287622   -0.5790444445    0.0000000000
N       -0.2005905909   -0.1047764259    0.0000000000
H        0.3223763342    0.8344941301   -0.0000000000
3    
Iteration 1 Energy -93.37650759
C        0.9064094871   -0.5838480144    0.0000000000
N       -0.1969462311   -0.1021745666    0.0000000000
H        0.2683870361    0.8555762327   -0.0000000000
3    
Iteration 1 Energy -93.37873897
C        0.9065324586   -0.5885661351    0.0000000000
N       -0.1931241494   -0.0995251837    0.0000000000
H        0.2138066458    0.8749839087   -0.0000000000
3    
Iteration 1 Energy -93.38097841
C        0.9065018658   -0.5931949123    0.0000000000
N       -0.1891292547   -0.0968054265    0.0000000000
H        0.1586503124    0.8923451614   -0.0000000000
3    
Iteration 1 Energy -93.38321171
C        0.9063219793   -0.5977313935    0.0000000000
N       -0.1849710629   -0.0939974342    0.0000000000
H        0.1030035600    0.9073749926   -0.0000000000
3    
Iteration 1 Energy -93.38542231
C        0.9059986170   -0.6021732014    0.0000000000
N       -0.1806638699   -0.0910877828    0.0000000000
H        0.0469960741    0.9198574348   -0.0000000000
3    
Iteration 1 Energy -93.38759350
C        0.9055396994   -0.6065189824    0.0000000000
N       -0.1762258838   -0.0880656086    0.0000000000
H       -0.0092133101    0.9296271192   -0.0000000000
3    
Iteration 1 Energy -93.38970932
C        0.9049541136   -0.6107687158    0.0000000000
N       -0.1716777902   -0.0849218217    0.0000000000
H       -0.0654439603    0.9365623835   -0.0000000000
3    
Iteration 1 Energy -93.39175482
C        0.9042503926   -0.6149228601    0.0000000000
N       -0.1670405750   -0.0816498093    0.0000000000
H       -0.1215009629    0.9405796657   -0.0000000000
3    
Iteration 1 Energy -93.39371566
C        0.9034361526   -0.6189812250    0.0000000000
N       -0.1623357601   -0.0782456927    0.0000000000
H       -0.1771815894    0.9416273346   -0.0000000000
3    
Iteration 1 Energy -93.39557855
C        0.9025175563   -0.6229431349    0.0000000000
N       -0.1575840124   -0.0747093861    0.0000000000
H       -0.2322793630    0.9396859817   -0.0000000000
3    
Iteration 1 Energy -93.39733182
C        0.9014997851   -0.6268080661    0.0000000000
N       -0.1528040431   -0.0710425220    0.0000000000
H       -0.2865882024    0.9347666075   -0.0000000000
3    
Iteration 1 Energy -93.39896607
C        0.9003875057   -0.6305758320    0.0000000000
N       -0.1480138417   -0.0672476137    0.0000000000
H       -0.3399102794    0.9269088317   -0.0000000000
3    
Iteration 1 Energy -93.40047485
C        0.8991849359   -0.6342465771    0.0000000000
N       -0.1432302689   -0.0633285687    0.0000000000
H       -0.3920614834    0.9161747920   -0.0000000000
3    
Iteration 1 Energy -93.40185454
C        0.8978964193   -0.6378210453    0.0000000000
N       -0.1384693765   -0.0592901085    0.0000000000
H       -0.4428745062    0.9026463393   -0.0000000000
3    
Iteration 1 Energy -93.40310408
C        0.8965266891   -0.6413008690    0.0000000000
N       -0.1337466737   -0.0551381780    0.0000000000
H       -0.4922009488    0.8864218176   -0.0000000000
3    
Iteration 1 Energy -93.40422475
C        0.8950809768   -0.6446887899    0.0000000000
N       -0.1290757986   -0.0508794724    0.0000000000
H       -0.5399091697    0.8676120928   -0.0000000000
3    
Iteration 1 Energy -93.40521946
C        0.8935656397   -0.6479889320    0.0000000000
N       -0.1244694988   -0.0465193933    0.0000000000
H       -0.5858839381    0.8463411129   -0.0000000000
3    
Iteration 1 Energy -93.40609226
C        0.8919870334   -0.6512057620    0.0000000000
N       -0.1199403127   -0.0420628239    0.0000000000
H       -0.6300259740    0.8227391960   -0.0000000000
3    
Iteration 1 Energy -93.40684790
C        0.8903510572   -0.6543433226    0.0000000000
N       -0.1154996393   -0.0375157054    0.0000000000
H       -0.6722510393    0.7969420472   -0.0000000000
3    
Iteration 1 Energy -93.40749118
C        0.8886644484   -0.6574059656    0.0000000000
N       -0.1111588296   -0.0328834995    0.0000000000
H       -0.7124828818    0.7690833919   -0.0000000000
3    
Iteration 1 Energy -93.40802647
C        0.8869334033   -0.6603980453    0.0000000000
N       -0.1069272545   -0.0281738038    0.0000000000
H       -0.7506708485    0.7393220875   -0.0000000000
3    
Iteration 1 Energy -93.40845776
C        0.8851661609   -0.6633250477    0.0000000000
N       -0.1028195842   -0.0233883018    0.0000000000
H       -0.7867074377    0.7077338933   -0.0000000000
3    
Iteration 1 Energy -93.40878817
C        0.8833615043   -0.6661880732    0.0000000000
N       -0.0988135885   -0.0185633958    0.0000000000
H       -0.8208677298    0.6748301983   -0.0000000000
3    
Iteration 1 Energy -93.40901375
C        0.8816082669   -0.6690034897    0.0000000000
N       -0.0951849243   -0.0135300469    0.0000000000
H       -0.8503695811    0.6384673706   -0.0000000000
