3    
Iteration 1 Energy -93.40479124
C        1.3383011614   -0.5067850827    0.0000000000
N        0.1959832463   -0.2222730386    0.0000000000
H       -0.7244267889    0.1430017515    0.0000000000
3    
Iteration 1 Energy -93.40473964
C        1.3385955211   -0.5041592566    0.0000000000
N        0.1955508059   -0.2273939277    0.0000000000
H       -0.7219393898    0.1828396829    0.0000000000
3    
Iteration 1 Energy -93.40441934
C        1.3393830481   -0.5008703917    0.0000000000
N        0.1932451922   -0.2331964160    0.0000000000
H       -0.6992780010    0.2242537330    0.0000000000
3    
Iteration 1 Energy -93.40399353
C        1.3400763460   -0.4975193855    0.0000000000
N        0.1910002922   -0.2390960468    0.0000000000
H       -0.6763188841    0.2662781180    0.0000000000
3    
Iteration 1 Energy -93.40346464
C        1.3407278800   -0.4941215860    0.0000000000
N        0.1885782120   -0.2449504354    0.0000000000
H       -0.6504021193    0.3071177893    0.0000000000
3    
Iteration 1 Energy -93.40282779
C        1.3413186870   -0.4906740261    0.0000000000
N        0.1860285302   -0.2507709719    0.0000000000
H       -0.6219969408    0.3469070857    0.0000000000
3    
Iteration 1 Energy -93.40207757
C        1.3418436238   -0.4871745361    0.0000000000
N        0.1833493987   -0.2565435566    0.0000000000
H       -0.5910105756    0.3854246974    0.0000000000
3    
Iteration 1 Energy -93.40120761
C        1.3422936854   -0.4836206538    0.0000000000
N        0.1805520735   -0.2622615147    0.0000000000
H       -0.5574891246    0.4225432014    0.0000000000
3    
Iteration 1 Energy -93.40021121
C        1.3426610538   -0.4800097764    0.0000000000
N        0.1776449968   -0.2679159978    0.0000000000
H       -0.5214517004    0.4581053721    0.0000000000
3    
Iteration 1 Energy -93.39908197
C        1.3429361741   -0.4763387867    0.0000000000
N        0.1746395800   -0.2734995953    0.0000000000
H       -0.4829405873    0.4919624561    0.0000000000
3    
Iteration 1 Energy -93.39781437
C        1.3431085601   -0.4726046305    0.0000000000
N        0.1715476375   -0.2790040847    0.0000000000
H       -0.4420075861    0.5239593346    0.0000000000
3    
Iteration 1 Energy -93.39640439
C        1.3431681454   -0.4688049954    0.0000000000
N        0.1683822906   -0.2844198359    0.0000000000
H       -0.3987241711    0.5539465119    0.0000000000
3    
Iteration 1 Energy -93.39485041
C        1.3431048086   -0.4649383918    0.0000000000
N        0.1651592819   -0.2897369229    0.0000000000
H       -0.3531799986    0.5817752694    0.0000000000
3    
Iteration 1 Energy -93.39315388
C        1.3429085365   -0.4610041691    0.0000000000
N        0.1618959283   -0.2949460390    0.0000000000
H       -0.3054901837    0.6073031705    0.0000000000
3    
Iteration 1 Energy -93.39131984
C        1.3425699912   -0.4570025814    0.0000000000
N        0.1586105350   -0.3000377502    0.0000000000
H       -0.2557958605    0.6303966283    0.0000000000
3    
Iteration 1 Energy -93.38935755
C        1.3420806118   -0.4529349299    0.0000000000
N        0.1553225343   -0.3050030237    0.0000000000
H       -0.2042659319    0.6509383850    0.0000000000
3    
Iteration 1 Energy -93.38728012
C        1.3414334169   -0.4488037406    0.0000000000
N        0.1520512676   -0.3098328026    0.0000000000
H       -0.1510948310    0.6688351257    0.0000000000
3    
Iteration 1 Energy -93.38510396
C        1.3406229918   -0.4446127988    0.0000000000
N        0.1488170763   -0.3145187542    0.0000000000
H       -0.0964975746    0.6840273856    0.0000000000
3    
Iteration 1 Energy -93.38284799
C        1.3396451740   -0.4403666761    0.0000000000
N        0.1456405556   -0.3190554775    0.0000000000
H       -0.0407040177    0.6964920105    0.0000000000
3    
Iteration 1 Energy -93.38053283
C        1.3384970718   -0.4360701824    0.0000000000
N        0.1425411819   -0.3234405704    0.0000000000
H        0.0160468496    0.7062489449    0.0000000000
3    
Iteration 1 Energy -93.37818063
C        1.3371773251   -0.4317288127    0.0000000000
N        0.1395374692   -0.3276742884    0.0000000000
H        0.0735158397    0.7133636488    0.0000000000
3    
Iteration 1 Energy -93.37581406
C        1.3356865635   -0.4273488749    0.0000000000
N        0.1366455063   -0.3317605136    0.0000000000
H        0.1314709888    0.7179639772    0.0000000000
3    
Iteration 1 Energy -93.37345450
C        1.3340272008   -0.4229366139    0.0000000000
N        0.1338786382   -0.3357070441    0.0000000000
H        0.1896979654    0.7202324276    0.0000000000
3    
Iteration 1 Energy -93.37111956
C        1.3322019933   -0.4184979766    0.0000000000
N        0.1312479029   -0.3395288758    0.0000000000
H        0.2480077006    0.7204481706    0.0000000000
3    
Iteration 1 Energy -93.36882163
C        1.3302124299   -0.4140389850    0.0000000000
N        0.1287624312   -0.3432459044    0.0000000000
H        0.3062557033    0.7189687813    0.0000000000
3    
Iteration 1 Energy -93.36656698
C        1.3280570300   -0.4095675149    0.0000000000
N        0.1264298790   -0.3468917084    0.0000000000
H        0.3643570360    0.7163533901    0.0000000000
3    
Iteration 1 Energy -93.36435266
C        1.3257292171   -0.4050921950    0.0000000000
N        0.1242569360   -0.3505067305    0.0000000000
H        0.4222944147    0.7132606717    0.0000000000
3    
Iteration 1 Energy -93.36216561
C        1.3232240640   -0.4006341281    0.0000000000
N        0.1222444392   -0.3541600052    0.0000000000
H        0.4801117273    0.7108981003    0.0000000000
3    
Iteration 1 Energy -93.35999321
C        1.3205393368   -0.3962141044    0.0000000000
N        0.1203918207   -0.3578907522    0.0000000000
H        0.5378421931    0.7100674569    0.0000000000
3    
Iteration 1 Energy -93.35784482
C        1.3177413447   -0.3919281769    0.0000000000
N        0.1186531172   -0.3617991252    0.0000000000
H        0.5953412388    0.7133103237    0.0000000000
3    
Iteration 1 Energy -93.35577298
C        1.3147659636   -0.3876166771    0.0000000000
N        0.1170794282   -0.3656632599    0.0000000000
H        0.6526641992    0.7156354578    0.0000000000
3    
Iteration 1 Energy -93.35390219
C        1.3119145156   -0.3840485719    0.0000000000
N        0.1156042190   -0.3698789174    0.0000000000
H        0.7071438342    0.7317038622    0.0000000000
3    
Iteration 1 Energy -93.35238383
C        1.3096935522   -0.3794829332    0.0000000000
N        0.1135851482   -0.3732566675    0.0000000000
H        0.7616678837    0.7242412999    0.0000000000
3    
Iteration 1 Energy -93.35133727
C        1.3053974229   -0.3772403684    0.0000000000
N        0.1140263228   -0.3771252475    0.0000000000
H        0.8067299081    0.7512811140    0.0000000000
3    
Iteration 0 Energy -93.35054500
C        1.3049824246   -0.3771273470    0.0000000000
N        0.1141290514   -0.3774679678    0.0000000000
H        0.9156634326    0.7546971074    0.0000000000
3    
Iteration 1 Energy -93.35164669
C        1.2994656042   -0.3698503308    0.0000000000
N        0.1115801346   -0.3847228189    0.0000000000
H        1.0168174339    0.7687996078    0.0000000000
3    
Iteration 1 Energy -93.35317230
C        1.2963584750   -0.3655464500    0.0000000000
N        0.1102330572   -0.3886352488    0.0000000000
H        1.0725381753    0.7718701841    0.0000000000
3    
Iteration 1 Energy -93.35540282
C        1.2930792277   -0.3612200988    0.0000000000
N        0.1088664945   -0.3927468955    0.0000000000
H        1.1305844585    0.7774538576    0.0000000000
3    
Iteration 1 Energy -93.35832754
C        1.2896447943   -0.3563860167    0.0000000000
N        0.1074728118   -0.3969645832    0.0000000000
H        1.1908627718    0.7784749361    0.0000000000
3    
Iteration 1 Energy -93.36188454
C        1.2860631508   -0.3513065888    0.0000000000
N        0.1060771376   -0.4012988311    0.0000000000
H        1.2529305711    0.7781946682    0.0000000000
3    
Iteration 1 Energy -93.36597576
C        1.2823686075   -0.3458938590    0.0000000000
N        0.1046896287   -0.4057118987    0.0000000000
H        1.3162295785    0.7750325763    0.0000000000
3    
Iteration 1 Energy -93.37047420
C        1.2785859208   -0.3401783730    0.0000000000
N        0.1033290452   -0.4101764353    0.0000000000
H        1.3802085927    0.7689782511    0.0000000000
3    
Iteration 1 Energy -93.37524059
C        1.2747459536   -0.3341755194    0.0000000000
N        0.1020115660   -0.4146637187    0.0000000000
H        1.4442773075    0.7598157617    0.0000000000
3    
Iteration 1 Energy -93.38013779
C        1.2708793189   -0.3279068106    0.0000000000
N        0.1007519574   -0.4191479348    0.0000000000
H        1.5078617382    0.7474423857    0.0000000000
3    
Iteration 1 Energy -93.38504185
C        1.2670155931   -0.3213960214    0.0000000000
N        0.0995629701   -0.4236067937    0.0000000000
H        1.5704294670    0.7318337199    0.0000000000
3    
Iteration 1 Energy -93.38984869
C        1.2631820234   -0.3146684435    0.0000000000
N        0.0984553553   -0.4280216136    0.0000000000
H        1.6315085665    0.7130334707    0.0000000000
3    
Iteration 1 Energy -93.39447641
C        1.2594025272   -0.3077502973    0.0000000000
N        0.0974378997   -0.4323775053    0.0000000000
H        1.6906929512    0.6911413569    0.0000000000
3    
Iteration 1 Energy -93.39886468
C        1.2556966885   -0.3006671574    0.0000000000
N        0.0965176011   -0.4366634149    0.0000000000
H        1.7476446616    0.6663068813    0.0000000000
3    
Iteration 1 Energy -93.40297210
C        1.2520806963   -0.2934437615    0.0000000000
N        0.0957000828   -0.4408712063    0.0000000000
H        1.8020914435    0.6387149090    0.0000000000
3    
Iteration 1 Energy -93.40677280
C        1.2485672200   -0.2861041312    0.0000000000
N        0.0949900260   -0.4449949697    0.0000000000
H        1.8538185089    0.6085726558    0.0000000000
3    
Iteration 1 Energy -93.41025270
C        1.2451657655   -0.2786717117    0.0000000000
N        0.0943913175   -0.4490304565    0.0000000000
H        1.9026616217    0.5761017736    0.0000000000
3    
Iteration 1 Energy -93.41340625
C        1.2418831146   -0.2711698169    0.0000000000
N        0.0939071238   -0.4529746000    0.0000000000
H        1.9484992952    0.5415317951    0.0000000000
3    
Iteration 1 Energy -93.41623413
C        1.2387233380   -0.2636208750    0.0000000000
N        0.0935396966   -0.4568254520    0.0000000000
H        1.9912472858    0.5050986346    0.0000000000
3    
Iteration 1 Energy -93.41874146
C        1.2356889428   -0.2560459193    0.0000000000
N        0.0932902348   -0.4605819058    0.0000000000
H        2.0308554010    0.4670404084    0.0000000000
3    
Iteration 1 Energy -93.42093639
C        1.2327816820   -0.2484651148    0.0000000000
N        0.0931590794   -0.4642432404    0.0000000000
H        2.0673020696    0.4275904984    0.0000000000
3    
Iteration 1 Energy -93.42282909
C        1.2300021745   -0.2408979605    0.0000000000
N        0.0931459044   -0.4678089697    0.0000000000
H        2.1005894024    0.3869752247    0.0000000000
3    
Iteration 1 Energy -93.42443078
C        1.2273500517   -0.2333632057    0.0000000000
N        0.0932495848   -0.4712788641    0.0000000000
H        2.1307404336    0.3454136068    0.0000000000
3    
Iteration 1 Energy -93.42575320
C        1.2248242801   -0.2258789602    0.0000000000
N        0.0934681597   -0.4746529113    0.0000000000
H        2.1577966309    0.3031165256    0.0000000000
3    
Iteration 1 Energy -93.42680815
C        1.2224231798   -0.2184623291    0.0000000000
N        0.0937987848   -0.4779313453    0.0000000000
H        2.1818153840    0.2602868713    0.0000000000
3    
Iteration 1 Energy -93.42760737
C        1.2201446639   -0.2111287905    0.0000000000
N        0.0942376925   -0.4811147204    0.0000000000
H        2.2028687995    0.2171196102    0.0000000000
3    
Iteration 1 Energy -93.42816243
C        1.2179864568   -0.2038925243    0.0000000000
N        0.0947805359   -0.4842038070    0.0000000000
H        2.2210424836    0.1737984012    0.0000000000
3    
Iteration 1 Energy -93.42848507
C        1.2159457968   -0.1967668908    0.0000000000
N        0.0954224918   -0.4871995909    0.0000000000
H        2.2364369814    0.1304925636    0.0000000000
3    
Iteration 1 Energy -93.42858759
C        1.2140215983   -0.1897628303    0.0000000000
N        0.0961566467   -0.4901039204    0.0000000000
H        2.2491525748    0.0873506839    0.0000000000
