3    
Climbing Image - Chain 37 Image 7 Energy   -93.3505450071 (+48.972 kcal/mol) RMSGrad 0.016 eV/Ang
C       -0.0256470082   -0.6477184393    0.0000000000
N       -0.6795216459    0.3478247087   -0.0000000000
H        0.7051185044    0.2999670444   -0.0000000000
