3    
Energy : -93.4285876 Hartree
C        0.0192517608    0.0211742633    0.0000000000
N       -0.7594070332   -0.8352817045    0.0000000000
H        0.7401132478    0.8140612065    0.0000000000
