3    
Energy : -93.4305833 Hartree
C        0.8721962395   -0.3335939591    0.0000000000
N       -0.2806403786   -0.2277617979    0.0000000000
H        1.9380752585   -0.4314432644    0.0000000000
