3    
Energy : -93.4285876 Hartree
C        1.2140410822   -0.1898950703    0.0000000000
N        0.0961265863   -0.4900454367    0.0000000000
H        2.2491323621    0.0874171030    0.0000000000
