3    
Energy : -93.4051584 Hartree
C       -0.7518670941   -0.8270967452    0.0000000000
N        0.0387680183    0.0426806829    0.0000000000
H        0.7130327452    0.7843429981    0.0000000000
