3    
Energy : -93.4051584 Hartree
C        1.3368426679   -0.5289586613    0.0000000000
N        0.2150392467   -0.1779823049    0.0000000000
H       -0.7416068408    0.1212418127    0.0000000000
