3    
Energy : -93.4092046 Hartree
C        0.8717089393   -0.6861429561    0.0000000000
N       -0.0678774191    0.0205719167    0.0000000000
H       -0.8672769859    0.6216481055    0.0000000000
