3    
Energy : -93.3505450 Hartree
C        1.3049824226   -0.3771273453    0.0000000000
N        0.1141290503   -0.3774679702    0.0000000000
H        0.9156634321    0.7546971100    0.0000000000
