3    
Energy : -93.3552131 Hartree
C        0.8934657259   -0.5265201380    0.0000000000
N       -0.2322139477   -0.1375591803    0.0000000000
H        0.9127187170    0.6641823221    0.0000000000
