3    
Climbing Image - Chain 41 Image 4 Energy   -92.7236058663 (+65.644 kcal/mol) RMSGrad 0.021 eV/Ang
C       -0.0156962228   -0.6475653697   -0.0000000000
N       -0.6930069939    0.3276794680    0.0000000000
H        0.7087032166    0.3198859017    0.0000000000
