3    
Climbing Image - Chain 40 Image 4 Energy   -92.7236065286 (+65.643 kcal/mol) RMSGrad 0.021 eV/Ang
C       -0.0146737890   -0.6489577113   -0.0000000000
N       -0.6918267798    0.3261886017    0.0000000000
H        0.7065005689    0.3227691096   -0.0000000000
