3    
Climbing Image - Chain 36 Image 4 Energy   -92.7236066442 (+65.593 kcal/mol) RMSGrad 0.020 eV/Ang
C       -0.0862862385   -0.6432026487    0.0000000000
N       -0.6511402412    0.4011719837    0.0000000000
H        0.7374264805    0.2420306688   -0.0000000000
