initial_chain [Molecule(name='C3H2N', formula='C3H2N', hash='ddfbe33'), Molecule(name='C3H2N', formula='C3H2N', hash='9d92249'), Molecule(name='C3H2N', formula='C3H2N', hash='4d4fd88'), Molecule(name='C3H2N', formula='C3H2N', hash='584fdc5'), Molecule(name='C3H2N', formula='C3H2N', hash='9ecd1ca'), Molecule(name='C3H2N', formula='C3H2N', hash='5f9d3db'), Molecule(name='C3H2N', formula='C3H2N', hash='4c5bebb'), Molecule(name='C3H2N', formula='C3H2N', hash='8089d1c'), Molecule(name='C3H2N', formula='C3H2N', hash='36b93b4'), Molecule(name='C3H2N', formula='C3H2N', hash='9fa3118'), Molecule(name='C3H2N', formula='C3H2N', hash='a3da3fd')]

k=0.500000, iteration=63

    -----------------------------------------------------------------------
          Psi4: An Open-Source Ab Initio Electronic Structure Package
                               Psi4 1.6 release

                         Git: Rev {HEAD} 77475b5 


    D. G. A. Smith, L. A. Burns, A. C. Simmonett, R. M. Parrish,
    M. C. Schieber, R. Galvelis, P. Kraus, H. Kruse, R. Di Remigio,
    A. Alenaizan, A. M. James, S. Lehtola, J. P. Misiewicz, M. Scheurer,
    R. A. Shaw, J. B. Schriber, Y. Xie, Z. L. Glick, D. A. Sirianni,
    J. S. O'Brien, J. M. Waldrop, A. Kumar, E. G. Hohenstein,
    B. P. Pritchard, B. R. Brooks, H. F. Schaefer III, A. Yu. Sokolov,
    K. Patkowski, A. E. DePrince III, U. Bozkaya, R. A. King,
    F. A. Evangelista, J. M. Turney, T. D. Crawford, C. D. Sherrill,
    J. Chem. Phys. 152(18) 184108 (2020). https://doi.org/10.1063/5.0006002

                            Additional Code Authors
    E. T. Seidl, C. L. Janssen, E. F. Valeev, M. L. Leininger,
    J. F. Gonthier, R. M. Richard, H. R. McAlexander, M. Saitow, X. Wang,
    P. Verma, M. H. Lechner, and A. Jiang

             Previous Authors, Complete List of Code Contributors,
                       and Citations for Specific Modules
    https://github.com/psi4/psi4/blob/master/codemeta.json
    https://github.com/psi4/psi4/graphs/contributors
    http://psicode.org/psi4manual/master/introduction.html#citing-psifour

    -----------------------------------------------------------------------


    Psi4 started on: Tuesday, 26 July 2022 11:05AM

    Process ID: 3632733
    Host:       sophon
    PSIDATADIR: /home/heepark/miniconda3/envs/qcfractal_2/share/psi4
    Memory:     24.0 GiB
    Threads:    6
    
  ==> Input QCSchema <==

--------------------------------------------------------------------------
{'driver': 'gradient',
 'extras': {},
 'id': None,
 'keywords': {},
 'model': {'basis': '6-31g', 'method': 'hf'},
 'molecule': {'fix_com': True,
              'fix_orientation': True,
              'geometry': [-0.706754, -2.8035325, -2.65899715, -0.30120253, -1.18433458, -1.12571878, 0.06561815,
                           0.27614026, 0.25809174, -1.06207421, -4.22391522, -4.00348014, 0.80092238, 3.18080981,
                           3.01588464, 1.2034902, 4.75483223, 4.51421967],
              'id': 32,
              'identifiers': {'molecular_formula': 'C3H2N',
                              'molecule_hash': '3188387c053f4c9d4212876bd21e98a7c8bd27b0'},
              'molecular_charge': -1.0,
              'molecular_multiplicity': 1,
              'name': 'C3H2N',
              'provenance': {'creator': 'QCElemental',
                             'routine': 'qcelemental.molparse.from_schema',
                             'version': 'v0.24.0'},
              'schema_name': 'qcschema_molecule',
              'schema_version': 2,
              'symbols': ['C', 'C', 'H', 'H', 'C', 'N'],
              'validated': True},
 'protocols': {},
 'provenance': {'creator': 'QCElemental', 'routine': 'qcelemental.models.results', 'version': 'v0.24.0'},
 'schema_name': 'qcschema_input',
 'schema_version': 1}
--------------------------------------------------------------------------

Scratch directory: /tmp/tmpocoe2pbt_psi_scratch/
gradient() will perform analytic gradient computation.

*** tstart() called on sophon
*** at Tue Jul 26 11:05:29 2022

   => Loading Basis Set <=

    Name: 6-31G
    Role: ORBITAL
    Keyword: BASIS
    atoms 1-2, 5 entry C          line    87 file /home/heepark/miniconda3/envs/qcfractal_2/share/psi4/basis/6-31g.gbs 
    atoms 3-4    entry H          line    26 file /home/heepark/miniconda3/envs/qcfractal_2/share/psi4/basis/6-31g.gbs 
    atoms 6      entry N          line   102 file /home/heepark/miniconda3/envs/qcfractal_2/share/psi4/basis/6-31g.gbs 


         ---------------------------------------------------------
                                   SCF
               by Justin Turney, Rob Parrish, Andy Simmonett
                          and Daniel G. A. Smith
                              RHF Reference
                        6 Threads,  24576 MiB Core
         ---------------------------------------------------------

  ==> Geometry <==

    Molecular point group: c1
    Full point group: C1

    Geometry (in Bohr), charge = -1, multiplicity = 1:

       Center              X                  Y                   Z               Mass       
    ------------   -----------------  -----------------  -----------------  -----------------
         C           -0.706754000000    -2.803532500000    -2.658997150000    12.000000000000
         C           -0.301202530000    -1.184334580000    -1.125718780000    12.000000000000
         H            0.065618150000     0.276140260000     0.258091740000     1.007825032230
         H           -1.062074210000    -4.223915220000    -4.003480140000     1.007825032230
         C            0.800922380000     3.180809810000     3.015884640000    12.000000000000
         N            1.203490200000     4.754832230000     4.514219670000    14.003074004430

  Running in c1 symmetry.

  Rotational constants: A = 179835.48475  B =      0.05403  C =      0.05403 [cm^-1]
  Rotational constants: A = 5391332200.74244  B =   1619.78903  C =   1619.78855 [MHz]
  Nuclear repulsion =   66.708988655912265

  Charge       = -1
  Multiplicity = 1
  Electrons    = 28
  Nalpha       = 14
  Nbeta        = 14

  ==> Algorithm <==

  SCF Algorithm Type is DF.
  DIIS enabled.
  MOM disabled.
  Fractional occupation disabled.
  Guess Type is SAD.
  Energy threshold   = 1.00e-08
  Density threshold  = 1.00e-08
  Integral threshold = 1.00e-12

  ==> Primary Basis <==

  Basis Set: 6-31G
    Blend: 6-31G
    Number of shells: 24
    Number of basis functions: 40
    Number of Cartesian functions: 40
    Spherical Harmonics?: false
    Max angular momentum: 1

   => Loading Basis Set <=

    Name: (6-31G AUX)
    Role: JKFIT
    Keyword: DF_BASIS_SCF
    atoms 1-2, 5 entry C          line   121 file /home/heepark/miniconda3/envs/qcfractal_2/share/psi4/basis/cc-pvdz-jkfit.gbs 
    atoms 3-4    entry H          line    51 file /home/heepark/miniconda3/envs/qcfractal_2/share/psi4/basis/cc-pvdz-jkfit.gbs 
    atoms 6      entry N          line   171 file /home/heepark/miniconda3/envs/qcfractal_2/share/psi4/basis/cc-pvdz-jkfit.gbs 

  ==> Integral Setup <==

  DFHelper Memory: AOs need 0.006 GiB; user supplied 18.000 GiB. Using in-core AOs.

  ==> MemDFJK: Density-Fitted J/K Matrices <==

    J tasked:                   Yes
    K tasked:                   Yes
    wK tasked:                   No
    OpenMP threads:               6
    Memory [MiB]:             18432
    Algorithm:                 Core
    Schwarz Cutoff:           1E-12
    Mask sparsity (%):       6.7500
    Fitting Condition:        1E-10

   => Auxiliary Basis Set <=

  Basis Set: (6-31G AUX)
    Blend: CC-PVDZ-JKFIT
    Number of shells: 114
    Number of basis functions: 374
    Number of Cartesian functions: 374
    Spherical Harmonics?: false
    Max angular momentum: 3

  Minimum eigenvalue in the overlap matrix is 6.5787924697E-04.
  Reciprocal condition number of the overlap matrix is 1.7613667208E-04.
    Using symmetric orthogonalization.

  ==> Pre-Iterations <==

  SCF Guess: Superposition of Atomic Densities via on-the-fly atomic UHF (no occupation information).

   -------------------------
    Irrep   Nso     Nmo    
   -------------------------
     A         40      40 
   -------------------------
    Total      40      40
   -------------------------

  ==> Iterations <==

                           Total Energy        Delta E     RMS |[F,P]|

   @DF-RHF iter SAD:  -167.25370446796893   -1.67254e+02   0.00000e+00 
   @DF-RHF iter   1:  -168.96925499594659   -1.71555e+00   9.67677e-03 DIIS/ADIIS
   @DF-RHF iter   2:  -169.02350441793828   -5.42494e-02   6.69508e-03 DIIS/ADIIS
   @DF-RHF iter   3:  -169.05225394465140   -2.87495e-02   1.44173e-03 DIIS/ADIIS
   @DF-RHF iter   4:  -169.05400858805999   -1.75464e-03   3.28555e-04 DIIS/ADIIS
   @DF-RHF iter   5:  -169.05411126205712   -1.02674e-04   1.12427e-04 DIIS/ADIIS
   @DF-RHF iter   6:  -169.05412150599656   -1.02439e-05   3.03947e-05 DIIS
   @DF-RHF iter   7:  -169.05412247357131   -9.67575e-07   5.11184e-06 DIIS
   @DF-RHF iter   8:  -169.05412250305091   -2.94796e-08   1.15256e-06 DIIS
   @DF-RHF iter   9:  -169.05412250439733   -1.34642e-09   2.41072e-07 DIIS
   @DF-RHF iter  10:  -169.05412250446412   -6.67910e-11   2.46810e-08 DIIS
   @DF-RHF iter  11:  -169.05412250446551   -1.39266e-12   4.86592e-09 DIIS
  Energy and wave function converged.


  ==> Post-Iterations <==

    Orbital Energies [Eh]
    ---------------------

    Doubly Occupied:                                                      

       1A    -15.293893     2A    -11.095421     3A    -11.091503  
       4A    -10.972577     5A     -0.949499     6A     -0.890266  
       7A     -0.610404     8A     -0.518957     9A     -0.329103  
      10A     -0.263188    11A     -0.263188    12A     -0.191755  
      13A     -0.191755    14A     -0.189721  

    Virtual:                                                              

      15A      0.354663    16A      0.354663    17A      0.381660  
      18A      0.481099    19A      0.481099    20A      0.567431  
      21A      0.766896    22A      0.802104    23A      0.841809  
      24A      0.892056    25A      0.892056    26A      1.022977  
      27A      1.022977    28A      1.083938    29A      1.083938  
      30A      1.113266    31A      1.120618    32A      1.260039  
      33A      1.316328    34A      1.316330    35A      1.426292  
      36A      1.478991    37A      1.713264    38A      1.820249  
      39A      2.017370    40A      2.215541  

    Final Occupation by Irrep:
              A 
    DOCC [    14 ]

  @DF-RHF Final Energy:  -169.05412250446551

   => Energetics <=

    Nuclear Repulsion Energy =             66.7089886559122647
    One-Electron Energy =                -365.8237626116012393
    Two-Electron Energy =                 130.0606514512234639
    Total Energy =                       -169.0541225044655107

Computation Completed


Properties will be evaluated at   0.000000,   0.000000,   0.000000 [a0]

Properties computed using the SCF density matrix


 Multipole Moments:

 ------------------------------------------------------------------------------------
     Multipole            Electronic (a.u.)      Nuclear  (a.u.)        Total (a.u.)
 ------------------------------------------------------------------------------------

 L = 1.  Multiply by 2.5417464519 to convert [e a0] to [Debye]
 Dipole X            :         -7.0255518            6.1857704           -0.8397814
 Dipole Y            :        -27.8179765           24.4937070           -3.3242695
 Dipole Z            :        -26.3956576           23.2411616           -3.1544960
 Magnitude           :                                                    4.6590606

 ------------------------------------------------------------------------------------

*** tstop() called on sophon at Tue Jul 26 11:05:30 2022
Module time:
	user time   =       2.95 seconds =       0.05 minutes
	system time =       0.16 seconds =       0.00 minutes
	total time  =          1 seconds =       0.02 minutes
Total time:
	user time   =       2.95 seconds =       0.05 minutes
	system time =       0.16 seconds =       0.00 minutes
	total time  =          1 seconds =       0.02 minutes

*** tstart() called on sophon
*** at Tue Jul 26 11:05:30 2022


         ------------------------------------------------------------
                                   SCF GRAD                          
                          Rob Parrish, Justin Turney,                
                       Andy Simmonett, and Alex Sokolov              
         ------------------------------------------------------------

  ==> Geometry <==

    Molecular point group: c1
    Full point group: C1

    Geometry (in Bohr), charge = -1, multiplicity = 1:

       Center              X                  Y                   Z               Mass       
    ------------   -----------------  -----------------  -----------------  -----------------
         C           -0.706754000000    -2.803532500000    -2.658997150000    12.000000000000
         C           -0.301202530000    -1.184334580000    -1.125718780000    12.000000000000
         H            0.065618150000     0.276140260000     0.258091740000     1.007825032230
         H           -1.062074210000    -4.223915220000    -4.003480140000     1.007825032230
         C            0.800922380000     3.180809810000     3.015884640000    12.000000000000
         N            1.203490200000     4.754832230000     4.514219670000    14.003074004430

  Nuclear repulsion =   66.708988655912265

  ==> Basis Set <==

  Basis Set: 6-31G
    Blend: 6-31G
    Number of shells: 24
    Number of basis functions: 40
    Number of Cartesian functions: 40
    Spherical Harmonics?: false
    Max angular momentum: 1

  ==> DFJKGrad: Density-Fitted SCF Gradients <==

    Gradient:                    1
    J tasked:                  Yes
    K tasked:                  Yes
    wK tasked:                  No
    OpenMP threads:              6
    Integrals threads:           6
    Memory [MiB]:            18432
    Schwarz Cutoff:          1E-12
    Fitting Condition:       1E-10

   => Auxiliary Basis Set <=

  Basis Set: (6-31G AUX)
    Blend: CC-PVDZ-JKFIT
    Number of shells: 114
    Number of basis functions: 374
    Number of Cartesian functions: 374
    Spherical Harmonics?: false
    Max angular momentum: 3


  -Total Gradient:
     Atom            X                  Y                   Z
    ------   -----------------  -----------------  -----------------
       1       -0.000001278619    -0.000004456972    -0.000012082092
       2       -0.000011995942     0.000008465938     0.000005116135
       3        0.000000200426    -0.000000687434    -0.000006032891
       4        0.000010022107    -0.000003076824     0.000009579318
       5       -0.000005273335     0.000012899370     0.000005049015
       6        0.000008325363    -0.000013144077    -0.000001629486


*** tstop() called on sophon at Tue Jul 26 11:05:30 2022
Module time:
	user time   =       0.49 seconds =       0.01 minutes
	system time =       0.04 seconds =       0.00 minutes
	total time  =          0 seconds =       0.00 minutes
Total time:
	user time   =       3.45 seconds =       0.06 minutes
	system time =       0.20 seconds =       0.00 minutes
	total time  =          1 seconds =       0.02 minutes

    Psi4 stopped on: Tuesday, 26 July 2022 11:05AM
    Psi4 wall time for execution: 0:00:00.81

*** Psi4 exiting successfully. Buy a developer a beer!


    -----------------------------------------------------------------------
          Psi4: An Open-Source Ab Initio Electronic Structure Package
                               Psi4 1.6 release

                         Git: Rev {HEAD} 77475b5 


    D. G. A. Smith, L. A. Burns, A. C. Simmonett, R. M. Parrish,
    M. C. Schieber, R. Galvelis, P. Kraus, H. Kruse, R. Di Remigio,
    A. Alenaizan, A. M. James, S. Lehtola, J. P. Misiewicz, M. Scheurer,
    R. A. Shaw, J. B. Schriber, Y. Xie, Z. L. Glick, D. A. Sirianni,
    J. S. O'Brien, J. M. Waldrop, A. Kumar, E. G. Hohenstein,
    B. P. Pritchard, B. R. Brooks, H. F. Schaefer III, A. Yu. Sokolov,
    K. Patkowski, A. E. DePrince III, U. Bozkaya, R. A. King,
    F. A. Evangelista, J. M. Turney, T. D. Crawford, C. D. Sherrill,
    J. Chem. Phys. 152(18) 184108 (2020). https://doi.org/10.1063/5.0006002

                            Additional Code Authors
    E. T. Seidl, C. L. Janssen, E. F. Valeev, M. L. Leininger,
    J. F. Gonthier, R. M. Richard, H. R. McAlexander, M. Saitow, X. Wang,
    P. Verma, M. H. Lechner, and A. Jiang

             Previous Authors, Complete List of Code Contributors,
                       and Citations for Specific Modules
    https://github.com/psi4/psi4/blob/master/codemeta.json
    https://github.com/psi4/psi4/graphs/contributors
    http://psicode.org/psi4manual/master/introduction.html#citing-psifour

    -----------------------------------------------------------------------


    Psi4 started on: Tuesday, 26 July 2022 11:05AM

    Process ID: 3632654
    Host:       sophon
    PSIDATADIR: /home/heepark/miniconda3/envs/qcfractal_2/share/psi4
    Memory:     24.0 GiB
    Threads:    6
    
  ==> Input QCSchema <==

--------------------------------------------------------------------------
{'driver': 'gradient',
 'extras': {},
 'id': None,
 'keywords': {},
 'model': {'basis': '6-31g', 'method': 'hf'},
 'molecule': {'fix_com': True,
              'fix_orientation': True,
              'geometry': [-0.666277, -2.74606936, -2.63472458, -0.62620033, -0.96060121, -0.97732425, -0.0677905,
                           0.67076533, 0.14774829, -0.75917096, -4.35877861, -3.84470703, 0.77188254, 2.83875607,
                           2.82286693, 1.34755625, 4.55592778, 4.48614064],
              'id': 24,
              'identifiers': {'molecular_formula': 'C3H2N',
                              'molecule_hash': 'fb6961e9bcdb479d078f22117e10af2c95d0dc69'},
              'molecular_charge': -1.0,
              'molecular_multiplicity': 1,
              'name': 'C3H2N',
              'provenance': {'creator': 'QCElemental',
                             'routine': 'qcelemental.molparse.from_schema',
                             'version': 'v0.24.0'},
              'schema_name': 'qcschema_molecule',
              'schema_version': 2,
              'symbols': ['C', 'C', 'H', 'H', 'C', 'N'],
              'validated': True},
 'protocols': {},
 'provenance': {'creator': 'QCElemental', 'routine': 'qcelemental.models.results', 'version': 'v0.24.0'},
 'schema_name': 'qcschema_input',
 'schema_version': 1}
--------------------------------------------------------------------------

Scratch directory: /tmp/tmpeajq53i0_psi_scratch/
gradient() will perform analytic gradient computation.

*** tstart() called on sophon
*** at Tue Jul 26 11:05:24 2022

   => Loading Basis Set <=

    Name: 6-31G
    Role: ORBITAL
    Keyword: BASIS
    atoms 1-2, 5 entry C          line    87 file /home/heepark/miniconda3/envs/qcfractal_2/share/psi4/basis/6-31g.gbs 
    atoms 3-4    entry H          line    26 file /home/heepark/miniconda3/envs/qcfractal_2/share/psi4/basis/6-31g.gbs 
    atoms 6      entry N          line   102 file /home/heepark/miniconda3/envs/qcfractal_2/share/psi4/basis/6-31g.gbs 


         ---------------------------------------------------------
                                   SCF
               by Justin Turney, Rob Parrish, Andy Simmonett
                          and Daniel G. A. Smith
                              RHF Reference
                        6 Threads,  24576 MiB Core
         ---------------------------------------------------------

  ==> Geometry <==

    Molecular point group: c1
    Full point group: C1

    Geometry (in Bohr), charge = -1, multiplicity = 1:

       Center              X                  Y                   Z               Mass       
    ------------   -----------------  -----------------  -----------------  -----------------
         C           -0.666277000000    -2.746069360000    -2.634724580000    12.000000000000
         C           -0.626200330000    -0.960601210000    -0.977324250000    12.000000000000
         H           -0.067790500000     0.670765330000     0.147748290000     1.007825032230
         H           -0.759170960000    -4.358778610000    -3.844707030000     1.007825032230
         C            0.771882540000     2.838756070000     2.822866930000    12.000000000000
         N            1.347556250000     4.555927780000     4.486140640000    14.003074004430

  Running in c1 symmetry.

  Rotational constants: A =     29.38787  B =      0.05805  C =      0.05796 [cm^-1]
  Rotational constants: A = 881026.07952  B =   1740.37207  C =   1737.58502 [MHz]
  Nuclear repulsion =   64.926155877458598

  Charge       = -1
  Multiplicity = 1
  Electrons    = 28
  Nalpha       = 14
  Nbeta        = 14

  ==> Algorithm <==

  SCF Algorithm Type is DF.
  DIIS enabled.
  MOM disabled.
  Fractional occupation disabled.
  Guess Type is SAD.
  Energy threshold   = 1.00e-08
  Density threshold  = 1.00e-08
  Integral threshold = 1.00e-12

  ==> Primary Basis <==

  Basis Set: 6-31G
    Blend: 6-31G
    Number of shells: 24
    Number of basis functions: 40
    Number of Cartesian functions: 40
    Spherical Harmonics?: false
    Max angular momentum: 1

   => Loading Basis Set <=

    Name: (6-31G AUX)
    Role: JKFIT
    Keyword: DF_BASIS_SCF
    atoms 1-2, 5 entry C          line   121 file /home/heepark/miniconda3/envs/qcfractal_2/share/psi4/basis/cc-pvdz-jkfit.gbs 
    atoms 3-4    entry H          line    51 file /home/heepark/miniconda3/envs/qcfractal_2/share/psi4/basis/cc-pvdz-jkfit.gbs 
    atoms 6      entry N          line   171 file /home/heepark/miniconda3/envs/qcfractal_2/share/psi4/basis/cc-pvdz-jkfit.gbs 

  ==> Integral Setup <==

  DFHelper Memory: AOs need 0.006 GiB; user supplied 18.000 GiB. Using in-core AOs.

  ==> MemDFJK: Density-Fitted J/K Matrices <==

    J tasked:                   Yes
    K tasked:                   Yes
    wK tasked:                   No
    OpenMP threads:               6
    Memory [MiB]:             18432
    Algorithm:                 Core
    Schwarz Cutoff:           1E-12
    Mask sparsity (%):       6.5000
    Fitting Condition:        1E-10

   => Auxiliary Basis Set <=

  Basis Set: (6-31G AUX)
    Blend: CC-PVDZ-JKFIT
    Number of shells: 114
    Number of basis functions: 374
    Number of Cartesian functions: 374
    Spherical Harmonics?: false
    Max angular momentum: 3

  Minimum eigenvalue in the overlap matrix is 2.4619601477E-03.
  Reciprocal condition number of the overlap matrix is 6.6929829517E-04.
    Using symmetric orthogonalization.

  ==> Pre-Iterations <==

  SCF Guess: Superposition of Atomic Densities via on-the-fly atomic UHF (no occupation information).

   -------------------------
    Irrep   Nso     Nmo    
   -------------------------
     A         40      40 
   -------------------------
    Total      40      40
   -------------------------

  ==> Iterations <==

                           Total Energy        Delta E     RMS |[F,P]|

   @DF-RHF iter SAD:  -166.92138941954533   -1.66921e+02   0.00000e+00 
   @DF-RHF iter   1:  -168.91015524427996   -1.98877e+00   9.96084e-03 ADIIS/DIIS
   @DF-RHF iter   2:  -168.93473302010474   -2.45778e-02   9.46158e-03 ADIIS/DIIS
   @DF-RHF iter   3:  -168.99680497251475   -6.20720e-02   1.39919e-03 ADIIS/DIIS
   @DF-RHF iter   4:  -168.99859846589098   -1.79349e-03   4.73381e-04 ADIIS/DIIS
   @DF-RHF iter   5:  -168.99878159634389   -1.83130e-04   2.28811e-04 ADIIS/DIIS
   @DF-RHF iter   6:  -168.99882930193050   -4.77056e-05   4.58209e-05 DIIS
   @DF-RHF iter   7:  -168.99883318822796   -3.88630e-06   1.34384e-05 DIIS
   @DF-RHF iter   8:  -168.99883386664050   -6.78413e-07   5.68278e-06 DIIS
   @DF-RHF iter   9:  -168.99883405835348   -1.91713e-07   3.05381e-06 DIIS
   @DF-RHF iter  10:  -168.99883413045936   -7.21059e-08   1.15554e-06 DIIS
   @DF-RHF iter  11:  -168.99883413865254   -8.19318e-09   1.54102e-07 DIIS
   @DF-RHF iter  12:  -168.99883413873283   -8.02913e-11   5.30045e-08 DIIS
   @DF-RHF iter  13:  -168.99883413874426   -1.14255e-11   2.29091e-08 DIIS
   @DF-RHF iter  14:  -168.99883413874733   -3.06954e-12   8.68820e-09 DIIS
  Energy and wave function converged.


  ==> Post-Iterations <==

    Orbital Energies [Eh]
    ---------------------

    Doubly Occupied:                                                      

       1A    -15.332450     2A    -11.107210     3A    -11.103911  
       4A    -11.020926     5A     -0.893504     6A     -0.852025  
       7A     -0.610830     8A     -0.509434     9A     -0.360536  
      10A     -0.234332    11A     -0.234126    12A     -0.194860  
      13A     -0.167687    14A     -0.167639  

    Virtual:                                                              

      15A      0.325023    16A      0.333504    17A      0.379823  
      18A      0.425014    19A      0.426184    20A      0.600457  
      21A      0.740550    22A      0.777816    23A      0.839081  
      24A      0.916218    25A      0.931668    26A      0.992155  
      27A      1.006076    28A      1.078081    29A      1.089539  
      30A      1.106769    31A      1.114897    32A      1.246399  
      33A      1.290168    34A      1.293793    35A      1.343172  
      36A      1.353964    37A      1.485525    38A      1.590062  
      39A      1.810471    40A      1.972772  

    Final Occupation by Irrep:
              A 
    DOCC [    14 ]

  @DF-RHF Final Energy:  -168.99883413874733

   => Energetics <=

    Nuclear Repulsion Energy =             64.9261558774585978
    One-Electron Energy =                -362.2710418146640450
    Two-Electron Energy =                 128.3460517984581202
    Total Energy =                       -168.9988341387473270

Computation Completed


Properties will be evaluated at   0.000000,   0.000000,   0.000000 [a0]

Properties computed using the SCF density matrix


 Multipole Moments:

 ------------------------------------------------------------------------------------
     Multipole            Electronic (a.u.)      Nuclear  (a.u.)        Total (a.u.)
 ------------------------------------------------------------------------------------

 L = 1.  Multiply by 2.5417464519 to convert [e a0] to [Debye]
 Dipole X            :         -6.2789295            5.4823636           -0.7965659
 Dipole Y            :        -26.0182424           22.9959942           -3.0222482
 Dipole Z            :        -25.9516828           22.9709343           -2.9807485
 Magnitude           :                                                    4.3189539

 ------------------------------------------------------------------------------------

*** tstop() called on sophon at Tue Jul 26 11:05:25 2022
Module time:
	user time   =       2.46 seconds =       0.04 minutes
	system time =       0.23 seconds =       0.00 minutes
	total time  =          1 seconds =       0.02 minutes
Total time:
	user time   =       2.46 seconds =       0.04 minutes
	system time =       0.23 seconds =       0.00 minutes
	total time  =          1 seconds =       0.02 minutes

*** tstart() called on sophon
*** at Tue Jul 26 11:05:25 2022


         ------------------------------------------------------------
                                   SCF GRAD                          
                          Rob Parrish, Justin Turney,                
                       Andy Simmonett, and Alex Sokolov              
         ------------------------------------------------------------

  ==> Geometry <==

    Molecular point group: c1
    Full point group: C1

    Geometry (in Bohr), charge = -1, multiplicity = 1:

       Center              X                  Y                   Z               Mass       
    ------------   -----------------  -----------------  -----------------  -----------------
         C           -0.666277000000    -2.746069360000    -2.634724580000    12.000000000000
         C           -0.626200330000    -0.960601210000    -0.977324250000    12.000000000000
         H           -0.067790500000     0.670765330000     0.147748290000     1.007825032230
         H           -0.759170960000    -4.358778610000    -3.844707030000     1.007825032230
         C            0.771882540000     2.838756070000     2.822866930000    12.000000000000
         N            1.347556250000     4.555927780000     4.486140640000    14.003074004430

  Nuclear repulsion =   64.926155877458598

  ==> Basis Set <==

  Basis Set: 6-31G
    Blend: 6-31G
    Number of shells: 24
    Number of basis functions: 40
    Number of Cartesian functions: 40
    Spherical Harmonics?: false
    Max angular momentum: 1

  ==> DFJKGrad: Density-Fitted SCF Gradients <==

    Gradient:                    1
    J tasked:                  Yes
    K tasked:                  Yes
    wK tasked:                  No
    OpenMP threads:              6
    Integrals threads:           6
    Memory [MiB]:            18432
    Schwarz Cutoff:          1E-12
    Fitting Condition:       1E-10

   => Auxiliary Basis Set <=

  Basis Set: (6-31G AUX)
    Blend: CC-PVDZ-JKFIT
    Number of shells: 114
    Number of basis functions: 374
    Number of Cartesian functions: 374
    Spherical Harmonics?: false
    Max angular momentum: 3


  -Total Gradient:
     Atom            X                  Y                   Z
    ------   -----------------  -----------------  -----------------
       1        0.002503360728    -0.100676302185    -0.103856905211
       2       -0.010553571192     0.116299464347     0.128925758607
       3        0.011242003809     0.005877445120    -0.012169622355
       4        0.001274716021    -0.009977514321    -0.006217655231
       5       -0.056255851090    -0.166066329161    -0.154609441407
       6        0.051789341724     0.154543236200     0.147927865596


*** tstop() called on sophon at Tue Jul 26 11:05:25 2022
Module time:
	user time   =       0.53 seconds =       0.01 minutes
	system time =       0.03 seconds =       0.00 minutes
	total time  =          0 seconds =       0.00 minutes
Total time:
	user time   =       2.99 seconds =       0.05 minutes
	system time =       0.26 seconds =       0.00 minutes
	total time  =          1 seconds =       0.02 minutes

    Psi4 stopped on: Tuesday, 26 July 2022 11:05AM
    Psi4 wall time for execution: 0:00:00.85

*** Psi4 exiting successfully. Buy a developer a beer!


    -----------------------------------------------------------------------
          Psi4: An Open-Source Ab Initio Electronic Structure Package
                               Psi4 1.6 release

                         Git: Rev {HEAD} 77475b5 


    D. G. A. Smith, L. A. Burns, A. C. Simmonett, R. M. Parrish,
    M. C. Schieber, R. Galvelis, P. Kraus, H. Kruse, R. Di Remigio,
    A. Alenaizan, A. M. James, S. Lehtola, J. P. Misiewicz, M. Scheurer,
    R. A. Shaw, J. B. Schriber, Y. Xie, Z. L. Glick, D. A. Sirianni,
    J. S. O'Brien, J. M. Waldrop, A. Kumar, E. G. Hohenstein,
    B. P. Pritchard, B. R. Brooks, H. F. Schaefer III, A. Yu. Sokolov,
    K. Patkowski, A. E. DePrince III, U. Bozkaya, R. A. King,
    F. A. Evangelista, J. M. Turney, T. D. Crawford, C. D. Sherrill,
    J. Chem. Phys. 152(18) 184108 (2020). https://doi.org/10.1063/5.0006002

                            Additional Code Authors
    E. T. Seidl, C. L. Janssen, E. F. Valeev, M. L. Leininger,
    J. F. Gonthier, R. M. Richard, H. R. McAlexander, M. Saitow, X. Wang,
    P. Verma, M. H. Lechner, and A. Jiang

             Previous Authors, Complete List of Code Contributors,
                       and Citations for Specific Modules
    https://github.com/psi4/psi4/blob/master/codemeta.json
    https://github.com/psi4/psi4/graphs/contributors
    http://psicode.org/psi4manual/master/introduction.html#citing-psifour

    -----------------------------------------------------------------------


    Psi4 started on: Tuesday, 26 July 2022 11:05AM

    Process ID: 3632718
    Host:       sophon
    PSIDATADIR: /home/heepark/miniconda3/envs/qcfractal_2/share/psi4
    Memory:     24.0 GiB
    Threads:    6
    
  ==> Input QCSchema <==

--------------------------------------------------------------------------
{'driver': 'gradient',
 'extras': {},
 'id': None,
 'keywords': {},
 'model': {'basis': '6-31g', 'method': 'hf'},
 'molecule': {'fix_com': True,
              'fix_orientation': True,
              'geometry': [-0.58518545, -2.69781878, -2.57471132, -0.8106005, -0.86838272, -1.10822511, -0.42008756,
                           0.90868094, -0.09766719, -0.51726218, -4.44481335, -3.60875867, 0.84587926, 2.64421807,
                           2.92386677, 1.48725644, 4.45811585, 4.46549553],
              'id': 26,
              'identifiers': {'molecular_formula': 'C3H2N',
                              'molecule_hash': 'c31f030382ac831a34461a7e9a660f82751e94f6'},
              'molecular_charge': -1.0,
              'molecular_multiplicity': 1,
              'name': 'C3H2N',
              'provenance': {'creator': 'QCElemental',
                             'routine': 'qcelemental.molparse.from_schema',
                             'version': 'v0.24.0'},
              'schema_name': 'qcschema_molecule',
              'schema_version': 2,
              'symbols': ['C', 'C', 'H', 'H', 'C', 'N'],
              'validated': True},
 'protocols': {},
 'provenance': {'creator': 'QCElemental', 'routine': 'qcelemental.models.results', 'version': 'v0.24.0'},
 'schema_name': 'qcschema_input',
 'schema_version': 1}
--------------------------------------------------------------------------

Scratch directory: /tmp/tmpiocbnjlj_psi_scratch/
gradient() will perform analytic gradient computation.

*** tstart() called on sophon
*** at Tue Jul 26 11:05:28 2022

   => Loading Basis Set <=

    Name: 6-31G
    Role: ORBITAL
    Keyword: BASIS
    atoms 1-2, 5 entry C          line    87 file /home/heepark/miniconda3/envs/qcfractal_2/share/psi4/basis/6-31g.gbs 
    atoms 3-4    entry H          line    26 file /home/heepark/miniconda3/envs/qcfractal_2/share/psi4/basis/6-31g.gbs 
    atoms 6      entry N          line   102 file /home/heepark/miniconda3/envs/qcfractal_2/share/psi4/basis/6-31g.gbs 


         ---------------------------------------------------------
                                   SCF
               by Justin Turney, Rob Parrish, Andy Simmonett
                          and Daniel G. A. Smith
                              RHF Reference
                        6 Threads,  24576 MiB Core
         ---------------------------------------------------------

  ==> Geometry <==

    Molecular point group: c1
    Full point group: C1

    Geometry (in Bohr), charge = -1, multiplicity = 1:

       Center              X                  Y                   Z               Mass       
    ------------   -----------------  -----------------  -----------------  -----------------
         C           -0.585185450000    -2.697818780000    -2.574711320000    12.000000000000
         C           -0.810600500000    -0.868382720000    -1.108225110000    12.000000000000
         H           -0.420087560000     0.908680940000    -0.097667190000     1.007825032230
         H           -0.517262180000    -4.444813350000    -3.608758670000     1.007825032230
         C            0.845879260000     2.644218070000     2.923866770000    12.000000000000
         N            1.487256440000     4.458115850000     4.465495530000    14.003074004430

  Running in c1 symmetry.

  Rotational constants: A =      9.70046  B =      0.05931  C =      0.05903 [cm^-1]
  Rotational constants: A = 290812.44635  B =   1777.96303  C =   1769.52542 [MHz]
  Nuclear repulsion =   65.378555214588431

  Charge       = -1
  Multiplicity = 1
  Electrons    = 28
  Nalpha       = 14
  Nbeta        = 14

  ==> Algorithm <==

  SCF Algorithm Type is DF.
  DIIS enabled.
  MOM disabled.
  Fractional occupation disabled.
  Guess Type is SAD.
  Energy threshold   = 1.00e-08
  Density threshold  = 1.00e-08
  Integral threshold = 1.00e-12

  ==> Primary Basis <==

  Basis Set: 6-31G
    Blend: 6-31G
    Number of shells: 24
    Number of basis functions: 40
    Number of Cartesian functions: 40
    Spherical Harmonics?: false
    Max angular momentum: 1

   => Loading Basis Set <=

    Name: (6-31G AUX)
    Role: JKFIT
    Keyword: DF_BASIS_SCF
    atoms 1-2, 5 entry C          line   121 file /home/heepark/miniconda3/envs/qcfractal_2/share/psi4/basis/cc-pvdz-jkfit.gbs 
    atoms 3-4    entry H          line    51 file /home/heepark/miniconda3/envs/qcfractal_2/share/psi4/basis/cc-pvdz-jkfit.gbs 
    atoms 6      entry N          line   171 file /home/heepark/miniconda3/envs/qcfractal_2/share/psi4/basis/cc-pvdz-jkfit.gbs 

  ==> Integral Setup <==

  DFHelper Memory: AOs need 0.006 GiB; user supplied 18.000 GiB. Using in-core AOs.

  ==> MemDFJK: Density-Fitted J/K Matrices <==

    J tasked:                   Yes
    K tasked:                   Yes
    wK tasked:                   No
    OpenMP threads:               6
    Memory [MiB]:             18432
    Algorithm:                 Core
    Schwarz Cutoff:           1E-12
    Mask sparsity (%):       5.7500
    Fitting Condition:        1E-10

   => Auxiliary Basis Set <=

  Basis Set: (6-31G AUX)
    Blend: CC-PVDZ-JKFIT
    Number of shells: 114
    Number of basis functions: 374
    Number of Cartesian functions: 374
    Spherical Harmonics?: false
    Max angular momentum: 3

  Minimum eigenvalue in the overlap matrix is 2.3893643397E-03.
  Reciprocal condition number of the overlap matrix is 6.4488712674E-04.
    Using symmetric orthogonalization.

  ==> Pre-Iterations <==

  SCF Guess: Superposition of Atomic Densities via on-the-fly atomic UHF (no occupation information).

   -------------------------
    Irrep   Nso     Nmo    
   -------------------------
     A         40      40 
   -------------------------
    Total      40      40
   -------------------------

  ==> Iterations <==

                           Total Energy        Delta E     RMS |[F,P]|

   @DF-RHF iter SAD:  -166.95688693874769   -1.66957e+02   0.00000e+00 
   @DF-RHF iter   1:  -168.91330724188717   -1.95642e+00   1.00591e-02 ADIIS/DIIS
   @DF-RHF iter   2:  -168.93897608098905   -2.56688e-02   9.45996e-03 ADIIS/DIIS
   @DF-RHF iter   3:  -169.00102947821819   -6.20534e-02   1.47006e-03 ADIIS/DIIS
   @DF-RHF iter   4:  -169.00300896122448   -1.97948e-03   4.42795e-04 ADIIS/DIIS
   @DF-RHF iter   5:  -169.00318072944444   -1.71768e-04   2.08530e-04 ADIIS/DIIS
   @DF-RHF iter   6:  -169.00322141460822   -4.06852e-05   4.79695e-05 DIIS
   @DF-RHF iter   7:  -169.00322618396629   -4.76936e-06   1.49683e-05 DIIS
   @DF-RHF iter   8:  -169.00322710277081   -9.18805e-07   6.57958e-06 DIIS
   @DF-RHF iter   9:  -169.00322736273245   -2.59962e-07   3.18066e-06 DIIS
   @DF-RHF iter  10:  -169.00322743118230   -6.84499e-08   1.14168e-06 DIIS
   @DF-RHF iter  11:  -169.00322743774103   -6.55874e-09   2.70716e-07 DIIS
   @DF-RHF iter  12:  -169.00322743814232   -4.01286e-10   1.45961e-07 DIIS
   @DF-RHF iter  13:  -169.00322743830918   -1.66864e-10   5.83421e-08 DIIS
   @DF-RHF iter  14:  -169.00322743833254   -2.33626e-11   2.14263e-08 DIIS
   @DF-RHF iter  15:  -169.00322743833499   -2.44427e-12   8.35052e-09 DIIS
  Energy and wave function converged.


  ==> Post-Iterations <==

    Orbital Energies [Eh]
    ---------------------

    Doubly Occupied:                                                      

       1A    -15.326830     2A    -11.101023     3A    -11.097936  
       4A    -11.016701     5A     -0.886755     6A     -0.868737  
       7A     -0.604176     8A     -0.507389     9A     -0.357035  
      10A     -0.246438    11A     -0.246124    12A     -0.187251  
      13A     -0.161952    14A     -0.161885  

    Virtual:                                                              

      15A      0.330456    16A      0.344965    17A      0.379622  
      18A      0.421026    19A      0.430423    20A      0.595852  
      21A      0.714316    22A      0.767160    23A      0.825848  
      24A      0.910890    25A      0.932074    26A      1.002521  
      27A      1.020496    28A      1.062638    29A      1.089936  
      30A      1.106791    31A      1.119372    32A      1.237179  
      33A      1.293369    34A      1.295142    35A      1.330790  
      36A      1.363931    37A      1.452498    38A      1.638480  
      39A      1.702488    40A      1.873717  

    Final Occupation by Irrep:
              A 
    DOCC [    14 ]

  @DF-RHF Final Energy:  -169.00322743833499

   => Energetics <=

    Nuclear Repulsion Energy =             65.3785552145884310
    One-Electron Energy =                -363.2231026986819984
    Two-Electron Energy =                 128.8413200457586072
    Total Energy =                       -169.0032274383349886

Computation Completed


Properties will be evaluated at   0.000000,   0.000000,   0.000000 [a0]

Properties computed using the SCF density matrix


 Multipole Moments:

 ------------------------------------------------------------------------------------
     Multipole            Electronic (a.u.)      Nuclear  (a.u.)        Total (a.u.)
 ------------------------------------------------------------------------------------

 L = 1.  Multiply by 2.5417464519 to convert [e a0] to [Debye]
 Dipole X            :         -7.1096354            6.1740052           -0.9356302
 Dipole Y            :        -25.1220936           22.1387780           -2.9833156
 Dipole Z            :        -26.0883199           22.9976249           -3.0906951
 Magnitude           :                                                    4.3963589

 ------------------------------------------------------------------------------------

*** tstop() called on sophon at Tue Jul 26 11:05:28 2022
Module time:
	user time   =       3.29 seconds =       0.05 minutes
	system time =       0.27 seconds =       0.00 minutes
	total time  =          0 seconds =       0.00 minutes
Total time:
	user time   =       3.29 seconds =       0.05 minutes
	system time =       0.27 seconds =       0.00 minutes
	total time  =          0 seconds =       0.00 minutes

*** tstart() called on sophon
*** at Tue Jul 26 11:05:28 2022


         ------------------------------------------------------------
                                   SCF GRAD                          
                          Rob Parrish, Justin Turney,                
                       Andy Simmonett, and Alex Sokolov              
         ------------------------------------------------------------

  ==> Geometry <==

    Molecular point group: c1
    Full point group: C1

    Geometry (in Bohr), charge = -1, multiplicity = 1:

       Center              X                  Y                   Z               Mass       
    ------------   -----------------  -----------------  -----------------  -----------------
         C           -0.585185450000    -2.697818780000    -2.574711320000    12.000000000000
         C           -0.810600500000    -0.868382720000    -1.108225110000    12.000000000000
         H           -0.420087560000     0.908680940000    -0.097667190000     1.007825032230
         H           -0.517262180000    -4.444813350000    -3.608758670000     1.007825032230
         C            0.845879260000     2.644218070000     2.923866770000    12.000000000000
         N            1.487256440000     4.458115850000     4.465495530000    14.003074004430

  Nuclear repulsion =   65.378555214588431

  ==> Basis Set <==

  Basis Set: 6-31G
    Blend: 6-31G
    Number of shells: 24
    Number of basis functions: 40
    Number of Cartesian functions: 40
    Spherical Harmonics?: false
    Max angular momentum: 1

  ==> DFJKGrad: Density-Fitted SCF Gradients <==

    Gradient:                    1
    J tasked:                  Yes
    K tasked:                  Yes
    wK tasked:                  No
    OpenMP threads:              6
    Integrals threads:           6
    Memory [MiB]:            18432
    Schwarz Cutoff:          1E-12
    Fitting Condition:       1E-10

   => Auxiliary Basis Set <=

  Basis Set: (6-31G AUX)
    Blend: CC-PVDZ-JKFIT
    Number of shells: 114
    Number of basis functions: 374
    Number of Cartesian functions: 374
    Spherical Harmonics?: false
    Max angular momentum: 3


  -Total Gradient:
     Atom            X                  Y                   Z
    ------   -----------------  -----------------  -----------------
       1        0.016203952110    -0.045204092752    -0.052490379291
       2       -0.024504247908     0.050683348246     0.072602738354
       3        0.010677610098     0.022794050540    -0.006757216481
       4        0.000700834398    -0.016385135644    -0.007060654855
       5       -0.059992983650    -0.175655719854    -0.142834937237
       6        0.056914834952     0.163767549463     0.136540449510


*** tstop() called on sophon at Tue Jul 26 11:05:28 2022
Module time:
	user time   =       0.46 seconds =       0.01 minutes
	system time =       0.02 seconds =       0.00 minutes
	total time  =          0 seconds =       0.00 minutes
Total time:
	user time   =       3.76 seconds =       0.06 minutes
	system time =       0.29 seconds =       0.00 minutes
	total time  =          0 seconds =       0.00 minutes

    Psi4 stopped on: Tuesday, 26 July 2022 11:05AM
    Psi4 wall time for execution: 0:00:01.01

*** Psi4 exiting successfully. Buy a developer a beer!


    -----------------------------------------------------------------------
          Psi4: An Open-Source Ab Initio Electronic Structure Package
                               Psi4 1.6 release

                         Git: Rev {HEAD} 77475b5 


    D. G. A. Smith, L. A. Burns, A. C. Simmonett, R. M. Parrish,
    M. C. Schieber, R. Galvelis, P. Kraus, H. Kruse, R. Di Remigio,
    A. Alenaizan, A. M. James, S. Lehtola, J. P. Misiewicz, M. Scheurer,
    R. A. Shaw, J. B. Schriber, Y. Xie, Z. L. Glick, D. A. Sirianni,
    J. S. O'Brien, J. M. Waldrop, A. Kumar, E. G. Hohenstein,
    B. P. Pritchard, B. R. Brooks, H. F. Schaefer III, A. Yu. Sokolov,
    K. Patkowski, A. E. DePrince III, U. Bozkaya, R. A. King,
    F. A. Evangelista, J. M. Turney, T. D. Crawford, C. D. Sherrill,
    J. Chem. Phys. 152(18) 184108 (2020). https://doi.org/10.1063/5.0006002

                            Additional Code Authors
    E. T. Seidl, C. L. Janssen, E. F. Valeev, M. L. Leininger,
    J. F. Gonthier, R. M. Richard, H. R. McAlexander, M. Saitow, X. Wang,
    P. Verma, M. H. Lechner, and A. Jiang

             Previous Authors, Complete List of Code Contributors,
                       and Citations for Specific Modules
    https://github.com/psi4/psi4/blob/master/codemeta.json
    https://github.com/psi4/psi4/graphs/contributors
    http://psicode.org/psi4manual/master/introduction.html#citing-psifour

    -----------------------------------------------------------------------


    Psi4 started on: Tuesday, 26 July 2022 11:05AM

    Process ID: 3632682
    Host:       sophon
    PSIDATADIR: /home/heepark/miniconda3/envs/qcfractal_2/share/psi4
    Memory:     24.0 GiB
    Threads:    6
    
  ==> Input QCSchema <==

--------------------------------------------------------------------------
{'driver': 'gradient',
 'extras': {},
 'id': None,
 'keywords': {},
 'model': {'basis': '6-31g', 'method': 'hf'},
 'molecule': {'fix_com': True,
              'fix_orientation': True,
              'geometry': [-0.55174568, -2.62931551, -2.48063505, -0.84965564, -0.6986422, -1.26492471, -0.85548614,
                           0.98134741, -0.22228501, -0.28042545, -4.45644342, -3.34932888, 0.96771737, 2.51119746,
                           2.86541423, 1.56959555, 4.29185627, 4.45175942],
              'id': 33,
              'identifiers': {'molecular_formula': 'C3H2N',
                              'molecule_hash': 'b812a0a3834b59e1f7cdafb1b3b873b78fa0939f'},
              'molecular_charge': -1.0,
              'molecular_multiplicity': 1,
              'name': 'C3H2N',
              'provenance': {'creator': 'QCElemental',
                             'routine': 'qcelemental.molparse.from_schema',
                             'version': 'v0.24.0'},
              'schema_name': 'qcschema_molecule',
              'schema_version': 2,
              'symbols': ['C', 'C', 'H', 'H', 'C', 'N'],
              'validated': True},
 'protocols': {},
 'provenance': {'creator': 'QCElemental', 'routine': 'qcelemental.models.results', 'version': 'v0.24.0'},
 'schema_name': 'qcschema_input',
 'schema_version': 1}
--------------------------------------------------------------------------

Scratch directory: /tmp/tmpu5u8y5ha_psi_scratch/
gradient() will perform analytic gradient computation.

*** tstart() called on sophon
*** at Tue Jul 26 11:05:26 2022

   => Loading Basis Set <=

    Name: 6-31G
    Role: ORBITAL
    Keyword: BASIS
    atoms 1-2, 5 entry C          line    87 file /home/heepark/miniconda3/envs/qcfractal_2/share/psi4/basis/6-31g.gbs 
    atoms 3-4    entry H          line    26 file /home/heepark/miniconda3/envs/qcfractal_2/share/psi4/basis/6-31g.gbs 
    atoms 6      entry N          line   102 file /home/heepark/miniconda3/envs/qcfractal_2/share/psi4/basis/6-31g.gbs 


         ---------------------------------------------------------
                                   SCF
               by Justin Turney, Rob Parrish, Andy Simmonett
                          and Daniel G. A. Smith
                              RHF Reference
                        6 Threads,  24576 MiB Core
         ---------------------------------------------------------

  ==> Geometry <==

    Molecular point group: c1
    Full point group: C1

    Geometry (in Bohr), charge = -1, multiplicity = 1:

       Center              X                  Y                   Z               Mass       
    ------------   -----------------  -----------------  -----------------  -----------------
         C           -0.551745680000    -2.629315510000    -2.480635050000    12.000000000000
         C           -0.849655640000    -0.698642200000    -1.264924710000    12.000000000000
         H           -0.855486140000     0.981347410000    -0.222285010000     1.007825032230
         H           -0.280425450000    -4.456443420000    -3.349328880000     1.007825032230
         C            0.967717370000     2.511197460000     2.865414230000    12.000000000000
         N            1.569595550000     4.291856270000     4.451759420000    14.003074004430

  Running in c1 symmetry.

  Rotational constants: A =      5.92198  B =      0.06188  C =      0.06127 [cm^-1]
  Rotational constants: A = 177536.40475  B =   1855.23295  C =   1836.89324 [MHz]
  Nuclear repulsion =   66.255314657192585

  Charge       = -1
  Multiplicity = 1
  Electrons    = 28
  Nalpha       = 14
  Nbeta        = 14

  ==> Algorithm <==

  SCF Algorithm Type is DF.
  DIIS enabled.
  MOM disabled.
  Fractional occupation disabled.
  Guess Type is SAD.
  Energy threshold   = 1.00e-08
  Density threshold  = 1.00e-08
  Integral threshold = 1.00e-12

  ==> Primary Basis <==

  Basis Set: 6-31G
    Blend: 6-31G
    Number of shells: 24
    Number of basis functions: 40
    Number of Cartesian functions: 40
    Spherical Harmonics?: false
    Max angular momentum: 1

   => Loading Basis Set <=

    Name: (6-31G AUX)
    Role: JKFIT
    Keyword: DF_BASIS_SCF
    atoms 1-2, 5 entry C          line   121 file /home/heepark/miniconda3/envs/qcfractal_2/share/psi4/basis/cc-pvdz-jkfit.gbs 
    atoms 3-4    entry H          line    51 file /home/heepark/miniconda3/envs/qcfractal_2/share/psi4/basis/cc-pvdz-jkfit.gbs 
    atoms 6      entry N          line   171 file /home/heepark/miniconda3/envs/qcfractal_2/share/psi4/basis/cc-pvdz-jkfit.gbs 

  ==> Integral Setup <==

  DFHelper Memory: AOs need 0.006 GiB; user supplied 18.000 GiB. Using in-core AOs.

  ==> MemDFJK: Density-Fitted J/K Matrices <==

    J tasked:                   Yes
    K tasked:                   Yes
    wK tasked:                   No
    OpenMP threads:               6
    Memory [MiB]:             18432
    Algorithm:                 Core
    Schwarz Cutoff:           1E-12
    Mask sparsity (%):       5.2500
    Fitting Condition:        1E-10

   => Auxiliary Basis Set <=

  Basis Set: (6-31G AUX)
    Blend: CC-PVDZ-JKFIT
    Number of shells: 114
    Number of basis functions: 374
    Number of Cartesian functions: 374
    Spherical Harmonics?: false
    Max angular momentum: 3

  Minimum eigenvalue in the overlap matrix is 1.2482282570E-03.
  Reciprocal condition number of the overlap matrix is 3.3237150326E-04.
    Using symmetric orthogonalization.

  ==> Pre-Iterations <==

  SCF Guess: Superposition of Atomic Densities via on-the-fly atomic UHF (no occupation information).

   -------------------------
    Irrep   Nso     Nmo    
   -------------------------
     A         40      40 
   -------------------------
    Total      40      40
   -------------------------

  ==> Iterations <==

                           Total Energy        Delta E     RMS |[F,P]|

   @DF-RHF iter SAD:  -167.01157858547006   -1.67012e+02   0.00000e+00 
   @DF-RHF iter   1:  -168.91683722644609   -1.90526e+00   1.01296e-02 ADIIS/DIIS
   @DF-RHF iter   2:  -168.94763285497845   -3.07956e-02   9.22122e-03 ADIIS/DIIS
   @DF-RHF iter   3:  -169.00614928338933   -5.85164e-02   1.55823e-03 ADIIS/DIIS
   @DF-RHF iter   4:  -169.00831903822797   -2.16975e-03   4.41521e-04 ADIIS/DIIS
   @DF-RHF iter   5:  -169.00849153645771   -1.72498e-04   1.97371e-04 ADIIS/DIIS
   @DF-RHF iter   6:  -169.00852686861077   -3.53322e-05   4.43786e-05 DIIS
   @DF-RHF iter   7:  -169.00853024588235   -3.37727e-06   1.20838e-05 DIIS
   @DF-RHF iter   8:  -169.00853067863494   -4.32753e-07   4.75201e-06 DIIS
   @DF-RHF iter   9:  -169.00853078202471   -1.03390e-07   2.22244e-06 DIIS
   @DF-RHF iter  10:  -169.00853081463114   -3.26064e-08   1.01567e-06 DIIS
   @DF-RHF iter  11:  -169.00853082148183   -6.85068e-09   2.89215e-07 DIIS
   @DF-RHF iter  12:  -169.00853082202366   -5.41831e-10   1.41432e-07 DIIS
   @DF-RHF iter  13:  -169.00853082217014   -1.46485e-10   4.88598e-08 DIIS
   @DF-RHF iter  14:  -169.00853082218242   -1.22782e-11   1.54501e-08 DIIS
   @DF-RHF iter  15:  -169.00853082218364   -1.22213e-12   6.47295e-09 DIIS
  Energy and wave function converged.


  ==> Post-Iterations <==

    Orbital Energies [Eh]
    ---------------------

    Doubly Occupied:                                                      

       1A    -15.318467     2A    -11.096673     3A    -11.092926  
       4A    -11.008435     5A     -0.882151     6A     -0.879641  
       7A     -0.608419     8A     -0.523135     9A     -0.351633  
      10A     -0.255511    11A     -0.254921    12A     -0.179200  
      13A     -0.156274    14A     -0.156241  

    Virtual:                                                              

      15A      0.347408    16A      0.353093    17A      0.380015  
      18A      0.419477    19A      0.440147    20A      0.584892  
      21A      0.726775    22A      0.772763    23A      0.826938  
      24A      0.901108    25A      0.914527    26A      1.020289  
      27A      1.035324    28A      1.066917    29A      1.098763  
      30A      1.115758    31A      1.134014    32A      1.248327  
      33A      1.300291    34A      1.308755    35A      1.348263  
      36A      1.381887    37A      1.454980    38A      1.727094  
      39A      1.855030    40A      1.879866  

    Final Occupation by Irrep:
              A 
    DOCC [    14 ]

  @DF-RHF Final Energy:  -169.00853082218364

   => Energetics <=

    Nuclear Repulsion Energy =             66.2553146571925851
    One-Electron Energy =                -365.0004357182453418
    Two-Electron Energy =                 129.7365902388691268
    Total Energy =                       -169.0085308221836442

Computation Completed


Properties will be evaluated at   0.000000,   0.000000,   0.000000 [a0]

Properties computed using the SCF density matrix


 Multipole Moments:

 ------------------------------------------------------------------------------------
     Multipole            Electronic (a.u.)      Nuclear  (a.u.)        Total (a.u.)
 ------------------------------------------------------------------------------------

 L = 1.  Multiply by 2.5417464519 to convert [e a0] to [Debye]
 Dipole X            :         -8.3606175            7.2491536           -1.1114640
 Dipole Y            :        -24.6253612           21.6673364           -2.9580248
 Dipole Z            :        -25.4470585           22.3098289           -3.1372296
 Magnitude           :                                                    4.4528050

 ------------------------------------------------------------------------------------

*** tstop() called on sophon at Tue Jul 26 11:05:27 2022
Module time:
	user time   =       3.71 seconds =       0.06 minutes
	system time =       0.33 seconds =       0.01 minutes
	total time  =          1 seconds =       0.02 minutes
Total time:
	user time   =       3.71 seconds =       0.06 minutes
	system time =       0.33 seconds =       0.01 minutes
	total time  =          1 seconds =       0.02 minutes

*** tstart() called on sophon
*** at Tue Jul 26 11:05:27 2022


         ------------------------------------------------------------
                                   SCF GRAD                          
                          Rob Parrish, Justin Turney,                
                       Andy Simmonett, and Alex Sokolov              
         ------------------------------------------------------------

  ==> Geometry <==

    Molecular point group: c1
    Full point group: C1

    Geometry (in Bohr), charge = -1, multiplicity = 1:

       Center              X                  Y                   Z               Mass       
    ------------   -----------------  -----------------  -----------------  -----------------
         C           -0.551745680000    -2.629315510000    -2.480635050000    12.000000000000
         C           -0.849655640000    -0.698642200000    -1.264924710000    12.000000000000
         H           -0.855486140000     0.981347410000    -0.222285010000     1.007825032230
         H           -0.280425450000    -4.456443420000    -3.349328880000     1.007825032230
         C            0.967717370000     2.511197460000     2.865414230000    12.000000000000
         N            1.569595550000     4.291856270000     4.451759420000    14.003074004430

  Nuclear repulsion =   66.255314657192585

  ==> Basis Set <==

  Basis Set: 6-31G
    Blend: 6-31G
    Number of shells: 24
    Number of basis functions: 40
    Number of Cartesian functions: 40
    Spherical Harmonics?: false
    Max angular momentum: 1

  ==> DFJKGrad: Density-Fitted SCF Gradients <==

    Gradient:                    1
    J tasked:                  Yes
    K tasked:                  Yes
    wK tasked:                  No
    OpenMP threads:              6
    Integrals threads:           6
    Memory [MiB]:            18432
    Schwarz Cutoff:          1E-12
    Fitting Condition:       1E-10

   => Auxiliary Basis Set <=

  Basis Set: (6-31G AUX)
    Blend: CC-PVDZ-JKFIT
    Number of shells: 114
    Number of basis functions: 374
    Number of Cartesian functions: 374
    Spherical Harmonics?: false
    Max angular momentum: 3


  -Total Gradient:
     Atom            X                  Y                   Z
    ------   -----------------  -----------------  -----------------
       1        0.005416022147    -0.009394612167    -0.018045680676
       2       -0.005174692430     0.050389465734     0.047564141417
       3       -0.001249579214    -0.008175909867    -0.013893884440
       4        0.003344936930    -0.021678328173    -0.006323843858
       5       -0.053881336623    -0.168141177698    -0.147292922478
       6        0.051544649189     0.157000562171     0.137992190035


*** tstop() called on sophon at Tue Jul 26 11:05:27 2022
Module time:
	user time   =       0.48 seconds =       0.01 minutes
	system time =       0.03 seconds =       0.00 minutes
	total time  =          0 seconds =       0.00 minutes
Total time:
	user time   =       4.20 seconds =       0.07 minutes
	system time =       0.36 seconds =       0.01 minutes
	total time  =          1 seconds =       0.02 minutes

    Psi4 stopped on: Tuesday, 26 July 2022 11:05AM
    Psi4 wall time for execution: 0:00:01.22

*** Psi4 exiting successfully. Buy a developer a beer!


    -----------------------------------------------------------------------
          Psi4: An Open-Source Ab Initio Electronic Structure Package
                               Psi4 1.6 release

                         Git: Rev {HEAD} 77475b5 


    D. G. A. Smith, L. A. Burns, A. C. Simmonett, R. M. Parrish,
    M. C. Schieber, R. Galvelis, P. Kraus, H. Kruse, R. Di Remigio,
    A. Alenaizan, A. M. James, S. Lehtola, J. P. Misiewicz, M. Scheurer,
    R. A. Shaw, J. B. Schriber, Y. Xie, Z. L. Glick, D. A. Sirianni,
    J. S. O'Brien, J. M. Waldrop, A. Kumar, E. G. Hohenstein,
    B. P. Pritchard, B. R. Brooks, H. F. Schaefer III, A. Yu. Sokolov,
    K. Patkowski, A. E. DePrince III, U. Bozkaya, R. A. King,
    F. A. Evangelista, J. M. Turney, T. D. Crawford, C. D. Sherrill,
    J. Chem. Phys. 152(18) 184108 (2020). https://doi.org/10.1063/5.0006002

                            Additional Code Authors
    E. T. Seidl, C. L. Janssen, E. F. Valeev, M. L. Leininger,
    J. F. Gonthier, R. M. Richard, H. R. McAlexander, M. Saitow, X. Wang,
    P. Verma, M. H. Lechner, and A. Jiang

             Previous Authors, Complete List of Code Contributors,
                       and Citations for Specific Modules
    https://github.com/psi4/psi4/blob/master/codemeta.json
    https://github.com/psi4/psi4/graphs/contributors
    http://psicode.org/psi4manual/master/introduction.html#citing-psifour

    -----------------------------------------------------------------------


    Psi4 started on: Tuesday, 26 July 2022 11:05AM

    Process ID: 3632635
    Host:       sophon
    PSIDATADIR: /home/heepark/miniconda3/envs/qcfractal_2/share/psi4
    Memory:     24.0 GiB
    Threads:    6
    
  ==> Input QCSchema <==

--------------------------------------------------------------------------
{'driver': 'gradient',
 'extras': {},
 'id': None,
 'keywords': {},
 'model': {'basis': '6-31g', 'method': 'hf'},
 'molecule': {'fix_com': True,
              'fix_orientation': True,
              'geometry': [-0.55271415, -2.57243397, -2.39294105, -0.90882163, -0.52468307, -1.17113439, -1.32557865,
                           1.15372507, -0.42233625, 0.09056664, -4.3913043, -3.02937344, 0.8804586, 2.54957001,
                           2.57218045, 1.81608919, 3.78512625, 4.44360468],
              'id': 28,
              'identifiers': {'molecular_formula': 'C3H2N',
                              'molecule_hash': '2d6245626badf1ab74b0ecb50856667a028fedf6'},
              'molecular_charge': -1.0,
              'molecular_multiplicity': 1,
              'name': 'C3H2N',
              'provenance': {'creator': 'QCElemental',
                             'routine': 'qcelemental.molparse.from_schema',
                             'version': 'v0.24.0'},
              'schema_name': 'qcschema_molecule',
              'schema_version': 2,
              'symbols': ['C', 'C', 'H', 'H', 'C', 'N'],
              'validated': True},
 'protocols': {},
 'provenance': {'creator': 'QCElemental', 'routine': 'qcelemental.models.results', 'version': 'v0.24.0'},
 'schema_name': 'qcschema_input',
 'schema_version': 1}
--------------------------------------------------------------------------

Scratch directory: /tmp/tmpfo4boyf4_psi_scratch/
gradient() will perform analytic gradient computation.

*** tstart() called on sophon
*** at Tue Jul 26 11:05:23 2022

   => Loading Basis Set <=

    Name: 6-31G
    Role: ORBITAL
    Keyword: BASIS
    atoms 1-2, 5 entry C          line    87 file /home/heepark/miniconda3/envs/qcfractal_2/share/psi4/basis/6-31g.gbs 
    atoms 3-4    entry H          line    26 file /home/heepark/miniconda3/envs/qcfractal_2/share/psi4/basis/6-31g.gbs 
    atoms 6      entry N          line   102 file /home/heepark/miniconda3/envs/qcfractal_2/share/psi4/basis/6-31g.gbs 


         ---------------------------------------------------------
                                   SCF
               by Justin Turney, Rob Parrish, Andy Simmonett
                          and Daniel G. A. Smith
                              RHF Reference
                        6 Threads,  24576 MiB Core
         ---------------------------------------------------------

  ==> Geometry <==

    Molecular point group: c1
    Full point group: C1

    Geometry (in Bohr), charge = -1, multiplicity = 1:

       Center              X                  Y                   Z               Mass       
    ------------   -----------------  -----------------  -----------------  -----------------
         C           -0.552714150000    -2.572433970000    -2.392941050000    12.000000000000
         C           -0.908821630000    -0.524683070000    -1.171134390000    12.000000000000
         H           -1.325578650000     1.153725070000    -0.422336250000     1.007825032230
         H            0.090566640000    -4.391304300000    -3.029373440000     1.007825032230
         C            0.880458600000     2.549570010000     2.572180450000    12.000000000000
         N            1.816089190000     3.785126250000     4.443604680000    14.003074004430

  Running in c1 symmetry.

  Rotational constants: A =      3.55651  B =      0.06790  C =      0.06664 [cm^-1]
  Rotational constants: A = 106621.56188  B =   2035.61191  C =   1997.72472 [MHz]
  Nuclear repulsion =   66.997688033873700

  Charge       = -1
  Multiplicity = 1
  Electrons    = 28
  Nalpha       = 14
  Nbeta        = 14

  ==> Algorithm <==

  SCF Algorithm Type is DF.
  DIIS enabled.
  MOM disabled.
  Fractional occupation disabled.
  Guess Type is SAD.
  Energy threshold   = 1.00e-08
  Density threshold  = 1.00e-08
  Integral threshold = 1.00e-12

  ==> Primary Basis <==

  Basis Set: 6-31G
    Blend: 6-31G
    Number of shells: 24
    Number of basis functions: 40
    Number of Cartesian functions: 40
    Spherical Harmonics?: false
    Max angular momentum: 1

   => Loading Basis Set <=

    Name: (6-31G AUX)
    Role: JKFIT
    Keyword: DF_BASIS_SCF
    atoms 1-2, 5 entry C          line   121 file /home/heepark/miniconda3/envs/qcfractal_2/share/psi4/basis/cc-pvdz-jkfit.gbs 
    atoms 3-4    entry H          line    51 file /home/heepark/miniconda3/envs/qcfractal_2/share/psi4/basis/cc-pvdz-jkfit.gbs 
    atoms 6      entry N          line   171 file /home/heepark/miniconda3/envs/qcfractal_2/share/psi4/basis/cc-pvdz-jkfit.gbs 

  ==> Integral Setup <==

  DFHelper Memory: AOs need 0.006 GiB; user supplied 18.000 GiB. Using in-core AOs.

  ==> MemDFJK: Density-Fitted J/K Matrices <==

    J tasked:                   Yes
    K tasked:                   Yes
    wK tasked:                   No
    OpenMP threads:               6
    Memory [MiB]:             18432
    Algorithm:                 Core
    Schwarz Cutoff:           1E-12
    Mask sparsity (%):       3.3750
    Fitting Condition:        1E-10

   => Auxiliary Basis Set <=

  Basis Set: (6-31G AUX)
    Blend: CC-PVDZ-JKFIT
    Number of shells: 114
    Number of basis functions: 374
    Number of Cartesian functions: 374
    Spherical Harmonics?: false
    Max angular momentum: 3

  Minimum eigenvalue in the overlap matrix is 2.2282249795E-03.
  Reciprocal condition number of the overlap matrix is 5.9408542830E-04.
    Using symmetric orthogonalization.

  ==> Pre-Iterations <==

  SCF Guess: Superposition of Atomic Densities via on-the-fly atomic UHF (no occupation information).

   -------------------------
    Irrep   Nso     Nmo    
   -------------------------
     A         40      40 
   -------------------------
    Total      40      40
   -------------------------

  ==> Iterations <==

                           Total Energy        Delta E     RMS |[F,P]|

   @DF-RHF iter SAD:  -166.97863222069356   -1.66979e+02   0.00000e+00 
   @DF-RHF iter   1:  -168.90033473851236   -1.92170e+00   9.95363e-03 DIIS/ADIIS
   @DF-RHF iter   2:  -168.93642806773207   -3.60933e-02   8.75427e-03 DIIS/ADIIS
   @DF-RHF iter   3:  -168.98866249780576   -5.22344e-02   1.52654e-03 DIIS/ADIIS
   @DF-RHF iter   4:  -168.99075247767908   -2.08998e-03   5.14761e-04 DIIS/ADIIS
   @DF-RHF iter   5:  -168.99099097344887   -2.38496e-04   2.39874e-04 DIIS/ADIIS
   @DF-RHF iter   6:  -168.99104961934813   -5.86459e-05   5.23184e-05 DIIS
   @DF-RHF iter   7:  -168.99105847713085   -8.85778e-06   1.99756e-05 DIIS
   @DF-RHF iter   8:  -168.99106091125935   -2.43413e-06   9.51780e-06 DIIS
   @DF-RHF iter   9:  -168.99106159083740   -6.79578e-07   3.90215e-06 DIIS
   @DF-RHF iter  10:  -168.99106167772678   -8.68894e-08   1.20174e-06 DIIS
   @DF-RHF iter  11:  -168.99106168255847   -4.83169e-09   2.78615e-07 DIIS
   @DF-RHF iter  12:  -168.99106168288750   -3.29038e-10   1.08531e-07 DIIS
   @DF-RHF iter  13:  -168.99106168294583   -5.83213e-11   3.97503e-08 DIIS
   @DF-RHF iter  14:  -168.99106168295273   -6.90648e-12   1.54035e-08 DIIS
   @DF-RHF iter  15:  -168.99106168295407   -1.33582e-12   7.68304e-09 DIIS
  Energy and wave function converged.


  ==> Post-Iterations <==

    Orbital Energies [Eh]
    ---------------------

    Doubly Occupied:                                                      

       1A    -15.311956     2A    -11.108789     3A    -11.103258  
       4A    -10.998628     5A     -0.885765     6A     -0.860721  
       7A     -0.625589     8A     -0.524760     9A     -0.346619  
      10A     -0.242870    11A     -0.239093    12A     -0.171669  
      13A     -0.156613    14A     -0.156097  

    Virtual:                                                              

      15A      0.330261    16A      0.337574    17A      0.386238  
      18A      0.437099    19A      0.449187    20A      0.557551  
      21A      0.715572    22A      0.779179    23A      0.821810  
      24A      0.912604    25A      0.935895    26A      1.014094  
      27A      1.022950    28A      1.063789    29A      1.104713  
      30A      1.116464    31A      1.126923    32A      1.246185  
      33A      1.308273    34A      1.321847    35A      1.337945  
      36A      1.424311    37A      1.437395    38A      1.627262  
      39A      1.805268    40A      1.947837  

    Final Occupation by Irrep:
              A 
    DOCC [    14 ]

  @DF-RHF Final Energy:  -168.99106168295407

   => Energetics <=

    Nuclear Repulsion Energy =             66.9976880338737004
    One-Electron Energy =                -366.5126482269369035
    Two-Electron Energy =                 130.5238985101091203
    Total Energy =                       -168.9910616829540686

Computation Completed


Properties will be evaluated at   0.000000,   0.000000,   0.000000 [a0]

Properties computed using the SCF density matrix


 Multipole Moments:

 ------------------------------------------------------------------------------------
     Multipole            Electronic (a.u.)      Nuclear  (a.u.)        Total (a.u.)
 ------------------------------------------------------------------------------------

 L = 1.  Multiply by 2.5417464519 to convert [e a0] to [Debye]
 Dipole X            :         -9.2009998            7.9911492           -1.2098505
 Dipole Y            :        -22.6237838           19.9730223           -2.6507615
 Dipole Z            :        -24.7029342           21.7021531           -3.0007811
 Magnitude           :                                                    4.1826979

 ------------------------------------------------------------------------------------

*** tstop() called on sophon at Tue Jul 26 11:05:23 2022
Module time:
	user time   =       2.57 seconds =       0.04 minutes
	system time =       0.26 seconds =       0.00 minutes
	total time  =          0 seconds =       0.00 minutes
Total time:
	user time   =       2.57 seconds =       0.04 minutes
	system time =       0.26 seconds =       0.00 minutes
	total time  =          0 seconds =       0.00 minutes

*** tstart() called on sophon
*** at Tue Jul 26 11:05:23 2022


         ------------------------------------------------------------
                                   SCF GRAD                          
                          Rob Parrish, Justin Turney,                
                       Andy Simmonett, and Alex Sokolov              
         ------------------------------------------------------------

  ==> Geometry <==

    Molecular point group: c1
    Full point group: C1

    Geometry (in Bohr), charge = -1, multiplicity = 1:

       Center              X                  Y                   Z               Mass       
    ------------   -----------------  -----------------  -----------------  -----------------
         C           -0.552714150000    -2.572433970000    -2.392941050000    12.000000000000
         C           -0.908821630000    -0.524683070000    -1.171134390000    12.000000000000
         H           -1.325578650000     1.153725070000    -0.422336250000     1.007825032230
         H            0.090566640000    -4.391304300000    -3.029373440000     1.007825032230
         C            0.880458600000     2.549570010000     2.572180450000    12.000000000000
         N            1.816089190000     3.785126250000     4.443604680000    14.003074004430

  Nuclear repulsion =   66.997688033873700

  ==> Basis Set <==

  Basis Set: 6-31G
    Blend: 6-31G
    Number of shells: 24
    Number of basis functions: 40
    Number of Cartesian functions: 40
    Spherical Harmonics?: false
    Max angular momentum: 1

  ==> DFJKGrad: Density-Fitted SCF Gradients <==

    Gradient:                    1
    J tasked:                  Yes
    K tasked:                  Yes
    wK tasked:                  No
    OpenMP threads:              6
    Integrals threads:           6
    Memory [MiB]:            18432
    Schwarz Cutoff:          1E-12
    Fitting Condition:       1E-10

   => Auxiliary Basis Set <=

  Basis Set: (6-31G AUX)
    Blend: CC-PVDZ-JKFIT
    Number of shells: 114
    Number of basis functions: 374
    Number of Cartesian functions: 374
    Spherical Harmonics?: false
    Max angular momentum: 3


  -Total Gradient:
     Atom            X                  Y                   Z
    ------   -----------------  -----------------  -----------------
       1        0.009891156627    -0.101619224781    -0.073662496062
       2       -0.018576425109     0.180735357810     0.119791455476
       3        0.007647018888    -0.048738453818    -0.027773714637
       4        0.007418325133    -0.015961323038    -0.002506543096
       5       -0.081483307407    -0.115629733639    -0.167663923738
       6        0.075103231867     0.101213377466     0.151815222057


*** tstop() called on sophon at Tue Jul 26 11:05:24 2022
Module time:
	user time   =       0.68 seconds =       0.01 minutes
	system time =       0.06 seconds =       0.00 minutes
	total time  =          1 seconds =       0.02 minutes
Total time:
	user time   =       3.26 seconds =       0.05 minutes
	system time =       0.32 seconds =       0.01 minutes
	total time  =          1 seconds =       0.02 minutes

    Psi4 stopped on: Tuesday, 26 July 2022 11:05AM
    Psi4 wall time for execution: 0:00:00.93

*** Psi4 exiting successfully. Buy a developer a beer!


    -----------------------------------------------------------------------
          Psi4: An Open-Source Ab Initio Electronic Structure Package
                               Psi4 1.6 release

                         Git: Rev {HEAD} 77475b5 


    D. G. A. Smith, L. A. Burns, A. C. Simmonett, R. M. Parrish,
    M. C. Schieber, R. Galvelis, P. Kraus, H. Kruse, R. Di Remigio,
    A. Alenaizan, A. M. James, S. Lehtola, J. P. Misiewicz, M. Scheurer,
    R. A. Shaw, J. B. Schriber, Y. Xie, Z. L. Glick, D. A. Sirianni,
    J. S. O'Brien, J. M. Waldrop, A. Kumar, E. G. Hohenstein,
    B. P. Pritchard, B. R. Brooks, H. F. Schaefer III, A. Yu. Sokolov,
    K. Patkowski, A. E. DePrince III, U. Bozkaya, R. A. King,
    F. A. Evangelista, J. M. Turney, T. D. Crawford, C. D. Sherrill,
    J. Chem. Phys. 152(18) 184108 (2020). https://doi.org/10.1063/5.0006002

                            Additional Code Authors
    E. T. Seidl, C. L. Janssen, E. F. Valeev, M. L. Leininger,
    J. F. Gonthier, R. M. Richard, H. R. McAlexander, M. Saitow, X. Wang,
    P. Verma, M. H. Lechner, and A. Jiang

             Previous Authors, Complete List of Code Contributors,
                       and Citations for Specific Modules
    https://github.com/psi4/psi4/blob/master/codemeta.json
    https://github.com/psi4/psi4/graphs/contributors
    http://psicode.org/psi4manual/master/introduction.html#citing-psifour

    -----------------------------------------------------------------------


    Psi4 started on: Tuesday, 26 July 2022 11:05AM

    Process ID: 3632713
    Host:       sophon
    PSIDATADIR: /home/heepark/miniconda3/envs/qcfractal_2/share/psi4
    Memory:     24.0 GiB
    Threads:    6
    
  ==> Input QCSchema <==

--------------------------------------------------------------------------
{'driver': 'gradient',
 'extras': {},
 'id': None,
 'keywords': {},
 'model': {'basis': '6-31g', 'method': 'hf'},
 'molecule': {'fix_com': True,
              'fix_orientation': True,
              'geometry': [-0.50241746, -2.53856967, -2.26869785, -1.01944029, -0.36321137, -1.20023827, -1.8316931,
                           1.36710107, -0.65895464, 0.46699942, -4.28568722, -2.64082178, 0.84245329, 2.51675501,
                           2.3923988, 2.04409813, 3.30361218, 4.37631374],
              'id': 23,
              'identifiers': {'molecular_formula': 'C3H2N',
                              'molecule_hash': '184d40410ae60cdddfcb70d6dd05eb81149398e0'},
              'molecular_charge': -1.0,
              'molecular_multiplicity': 1,
              'name': 'C3H2N',
              'provenance': {'creator': 'QCElemental',
                             'routine': 'qcelemental.molparse.from_schema',
                             'version': 'v0.24.0'},
              'schema_name': 'qcschema_molecule',
              'schema_version': 2,
              'symbols': ['C', 'C', 'H', 'H', 'C', 'N'],
              'validated': True},
 'protocols': {},
 'provenance': {'creator': 'QCElemental', 'routine': 'qcelemental.models.results', 'version': 'v0.24.0'},
 'schema_name': 'qcschema_input',
 'schema_version': 1}
--------------------------------------------------------------------------

Scratch directory: /tmp/tmpy45mfkw6_psi_scratch/
gradient() will perform analytic gradient computation.

*** tstart() called on sophon
*** at Tue Jul 26 11:05:27 2022

   => Loading Basis Set <=

    Name: 6-31G
    Role: ORBITAL
    Keyword: BASIS
    atoms 1-2, 5 entry C          line    87 file /home/heepark/miniconda3/envs/qcfractal_2/share/psi4/basis/6-31g.gbs 
    atoms 3-4    entry H          line    26 file /home/heepark/miniconda3/envs/qcfractal_2/share/psi4/basis/6-31g.gbs 
    atoms 6      entry N          line   102 file /home/heepark/miniconda3/envs/qcfractal_2/share/psi4/basis/6-31g.gbs 


         ---------------------------------------------------------
                                   SCF
               by Justin Turney, Rob Parrish, Andy Simmonett
                          and Daniel G. A. Smith
                              RHF Reference
                        6 Threads,  24576 MiB Core
         ---------------------------------------------------------

[...]

    Final Occupation by Irrep:
              A 
    DOCC [    14 ]

  @DF-RHF Final Energy:  -168.97857781145262

   => Energetics <=

    Nuclear Repulsion Energy =             77.3658646590217955
    One-Electron Energy =                -387.0206108495478361
    Two-Electron Energy =                 140.6761683790734310
    Total Energy =                       -168.9785778114526238

Computation Completed


Properties will be evaluated at   0.000000,   0.000000,   0.000000 [a0]

Properties computed using the SCF density matrix


 Multipole Moments:

 ------------------------------------------------------------------------------------
     Multipole            Electronic (a.u.)      Nuclear  (a.u.)        Total (a.u.)
 ------------------------------------------------------------------------------------

 L = 1.  Multiply by 2.5417464519 to convert [e a0] to [Debye]
 Dipole X            :         -8.3237373            7.9801989           -0.3435384
 Dipole Y            :         -8.7932854            9.0845438            0.2912584
 Dipole Z            :        -16.2158725           15.7155627           -0.5003098
 Magnitude           :                                                    0.6731715

 ------------------------------------------------------------------------------------

*** tstop() called on sophon at Tue Jul 26 11:05:26 2022
Module time:
	user time   =       3.62 seconds =       0.06 minutes
	system time =       0.22 seconds =       0.00 minutes
	total time  =          0 seconds =       0.00 minutes
Total time:
	user time   =       3.62 seconds =       0.06 minutes
	system time =       0.22 seconds =       0.00 minutes
	total time  =          0 seconds =       0.00 minutes

*** tstart() called on sophon
*** at Tue Jul 26 11:05:26 2022


         ------------------------------------------------------------
                                   SCF GRAD                          
                          Rob Parrish, Justin Turney,                
                       Andy Simmonett, and Alex Sokolov              
         ------------------------------------------------------------

  ==> Geometry <==

    Molecular point group: c1
    Full point group: C1

    Geometry (in Bohr), charge = -1, multiplicity = 1:

       Center              X                  Y                   Z               Mass       
    ------------   -----------------  -----------------  -----------------  -----------------
         C           -0.479236680000    -2.128646580000    -1.633755770000    12.000000000000
         C           -1.037626750000     0.223983400000    -0.746700270000    12.000000000000
         H           -2.488735540000     1.608536340000    -1.266378620000     1.007825032230
         H            1.317243320000    -3.075797160000    -1.201532760000     1.007825032230
         C            0.565617820000     1.623684310000     1.472361590000    12.000000000000
         N            2.122737830000     1.748239690000     3.376005830000    14.003074004430

  Nuclear repulsion =   77.365864659021796

  ==> Basis Set <==

  Basis Set: 6-31G
    Blend: 6-31G
    Number of shells: 24
    Number of basis functions: 40
    Number of Cartesian functions: 40
    Spherical Harmonics?: false
    Max angular momentum: 1

  ==> DFJKGrad: Density-Fitted SCF Gradients <==

    Gradient:                    1
    J tasked:                  Yes
    K tasked:                  Yes
    wK tasked:                  No
    OpenMP threads:              6
    Integrals threads:           6
    Memory [MiB]:            18432
    Schwarz Cutoff:          1E-12
    Fitting Condition:       1E-10

   => Auxiliary Basis Set <=

  Basis Set: (6-31G AUX)
    Blend: CC-PVDZ-JKFIT
    Number of shells: 114
    Number of basis functions: 374
    Number of Cartesian functions: 374
    Spherical Harmonics?: false
    Max angular momentum: 3


  -Total Gradient:
     Atom            X                  Y                   Z
    ------   -----------------  -----------------  -----------------
       1        0.014966874226    -0.023818709955     0.017219434815
       2       -0.030570513203    -0.023632210593    -0.033944319670
       3       -0.001239442854     0.024963447930     0.002579692746
       4        0.005450079688    -0.009163199082    -0.016476627242
       5       -0.137704750320     0.031672954855    -0.147806234356
       6        0.149097752463    -0.000022283154     0.178428053707


*** tstop() called on sophon at Tue Jul 26 11:05:27 2022
Module time:
	user time   =       0.59 seconds =       0.01 minutes
	system time =       0.04 seconds =       0.00 minutes
	total time  =          1 seconds =       0.02 minutes
Total time:
	user time   =       4.22 seconds =       0.07 minutes
	system time =       0.26 seconds =       0.00 minutes
	total time  =          1 seconds =       0.02 minutes

    Psi4 stopped on: Tuesday, 26 July 2022 11:05AM
    Psi4 wall time for execution: 0:00:01.06

*** Psi4 exiting successfully. Buy a developer a beer!


    -----------------------------------------------------------------------
          Psi4: An Open-Source Ab Initio Electronic Structure Package
                               Psi4 1.6 release

                         Git: Rev {HEAD} 77475b5 


    D. G. A. Smith, L. A. Burns, A. C. Simmonett, R. M. Parrish,
    M. C. Schieber, R. Galvelis, P. Kraus, H. Kruse, R. Di Remigio,
    A. Alenaizan, A. M. James, S. Lehtola, J. P. Misiewicz, M. Scheurer,
    R. A. Shaw, J. B. Schriber, Y. Xie, Z. L. Glick, D. A. Sirianni,
    J. S. O'Brien, J. M. Waldrop, A. Kumar, E. G. Hohenstein,
    B. P. Pritchard, B. R. Brooks, H. F. Schaefer III, A. Yu. Sokolov,
    K. Patkowski, A. E. DePrince III, U. Bozkaya, R. A. King,
    F. A. Evangelista, J. M. Turney, T. D. Crawford, C. D. Sherrill,
    J. Chem. Phys. 152(18) 184108 (2020). https://doi.org/10.1063/5.0006002

                            Additional Code Authors
    E. T. Seidl, C. L. Janssen, E. F. Valeev, M. L. Leininger,
    J. F. Gonthier, R. M. Richard, H. R. McAlexander, M. Saitow, X. Wang,
    P. Verma, M. H. Lechner, and A. Jiang

             Previous Authors, Complete List of Code Contributors,
                       and Citations for Specific Modules
    https://github.com/psi4/psi4/blob/master/codemeta.json
    https://github.com/psi4/psi4/graphs/contributors
    http://psicode.org/psi4manual/master/introduction.html#citing-psifour

    -----------------------------------------------------------------------


    Psi4 started on: Tuesday, 26 July 2022 11:05AM

    Process ID: 3632636
    Host:       sophon
    PSIDATADIR: /home/heepark/miniconda3/envs/qcfractal_2/share/psi4
    Memory:     24.0 GiB
    Threads:    6
    
  ==> Input QCSchema <==

--------------------------------------------------------------------------
{'driver': 'gradient',
 'extras': {},
 'id': None,
 'keywords': {},
 'model': {'basis': '6-31g', 'method': 'hf'},
 'molecule': {'fix_com': True,
              'fix_orientation': True,
              'geometry': [-0.49540238, -1.96071372, -1.86134823, -0.8303187, 0.27390832, -0.59476573, -2.33696016,
                           1.54991815, -1.12073037, 1.13929289, -2.99673588, -1.04178972, 0.65800047, 1.19670893,
                           1.47339716, 1.86538788, 1.9369142, 3.14523689],
              'id': 31,
              'identifiers': {'molecular_formula': 'C3H2N',
                              'molecule_hash': '44a3c97959e4fa563767bdd6348708a75606d7e3'},
              'molecular_charge': -1.0,
              'molecular_multiplicity': 1,
              'name': 'C3H2N',
              'provenance': {'creator': 'QCElemental',
                             'routine': 'qcelemental.molparse.from_schema',
                             'version': 'v0.24.0'},
              'schema_name': 'qcschema_molecule',
              'schema_version': 2,
              'symbols': ['C', 'C', 'H', 'H', 'C', 'N'],
              'validated': True},
 'protocols': {},
 'provenance': {'creator': 'QCElemental', 'routine': 'qcelemental.models.results', 'version': 'v0.24.0'},
 'schema_name': 'qcschema_input',
 'schema_version': 1}
--------------------------------------------------------------------------

Scratch directory: /tmp/tmpecnaknc7_psi_scratch/
gradient() will perform analytic gradient computation.

*** tstart() called on sophon
*** at Tue Jul 26 11:05:23 2022

   => Loading Basis Set <=

    Name: 6-31G
    Role: ORBITAL
    Keyword: BASIS
    atoms 1-2, 5 entry C          line    87 file /home/heepark/miniconda3/envs/qcfractal_2/share/psi4/basis/6-31g.gbs 
    atoms 3-4    entry H          line    26 file /home/heepark/miniconda3/envs/qcfractal_2/share/psi4/basis/6-31g.gbs 
    atoms 6      entry N          line   102 file /home/heepark/miniconda3/envs/qcfractal_2/share/psi4/basis/6-31g.gbs 


         ---------------------------------------------------------
                                   SCF
               by Justin Turney, Rob Parrish, Andy Simmonett
                          and Daniel G. A. Smith
                              RHF Reference
                        6 Threads,  24576 MiB Core
         ---------------------------------------------------------

  ==> Geometry <==

    Molecular point group: c1
    Full point group: C1

    Geometry (in Bohr), charge = -1, multiplicity = 1:

       Center              X                  Y                   Z               Mass       
    ------------   -----------------  -----------------  -----------------  -----------------
         C           -0.495402380000    -1.960713720000    -1.861348230000    12.000000000000
         C           -0.830318700000     0.273908320000    -0.594765730000    12.000000000000
         H           -2.336960160000     1.549918150000    -1.120730370000     1.007825032230
         H            1.139292890000    -2.996735880000    -1.041789720000     1.007825032230
         C            0.658000470000     1.196708930000     1.473397160000    12.000000000000
         N            1.865387880000     1.936914200000     3.145236890000    14.003074004430

  Running in c1 symmetry.

  Rotational constants: A =      1.75607  B =      0.15898  C =      0.14579 [cm^-1]
  Rotational constants: A =  52645.71733  B =   4766.22170  C =   4370.53977 [MHz]
  Nuclear repulsion =   82.713042031175917

  Charge       = -1
  Multiplicity = 1
  Electrons    = 28
  Nalpha       = 14
  Nbeta        = 14

  ==> Algorithm <==

  SCF Algorithm Type is DF.
  DIIS enabled.
  MOM disabled.
  Fractional occupation disabled.
  Guess Type is SAD.
  Energy threshold   = 1.00e-08
  Density threshold  = 1.00e-08
  Integral threshold = 1.00e-12

  ==> Primary Basis <==

  Basis Set: 6-31G
    Blend: 6-31G
    Number of shells: 24
    Number of basis functions: 40
    Number of Cartesian functions: 40
    Spherical Harmonics?: false
    Max angular momentum: 1

   => Loading Basis Set <=

    Name: (6-31G AUX)
    Role: JKFIT
    Keyword: DF_BASIS_SCF
    atoms 1-2, 5 entry C          line   121 file /home/heepark/miniconda3/envs/qcfractal_2/share/psi4/basis/cc-pvdz-jkfit.gbs 
    atoms 3-4    entry H          line    51 file /home/heepark/miniconda3/envs/qcfractal_2/share/psi4/basis/cc-pvdz-jkfit.gbs 
    atoms 6      entry N          line   171 file /home/heepark/miniconda3/envs/qcfractal_2/share/psi4/basis/cc-pvdz-jkfit.gbs 

  ==> Integral Setup <==

  DFHelper Memory: AOs need 0.006 GiB; user supplied 18.000 GiB. Using in-core AOs.

  ==> MemDFJK: Density-Fitted J/K Matrices <==

    J tasked:                   Yes
    K tasked:                   Yes
    wK tasked:                   No
    OpenMP threads:               6
    Memory [MiB]:             18432
    Algorithm:                 Core
    Schwarz Cutoff:           1E-12
    Mask sparsity (%):       0.6250
    Fitting Condition:        1E-10

   => Auxiliary Basis Set <=

  Basis Set: (6-31G AUX)
    Blend: CC-PVDZ-JKFIT
    Number of shells: 114
    Number of basis functions: 374
    Number of Cartesian functions: 374
    Spherical Harmonics?: false
    Max angular momentum: 3

  Minimum eigenvalue in the overlap matrix is 2.2157168237E-03.
  Reciprocal condition number of the overlap matrix is 5.0230081597E-04.
    Using symmetric orthogonalization.

  ==> Pre-Iterations <==

  SCF Guess: Superposition of Atomic Densities via on-the-fly atomic UHF (no occupation information).

   -------------------------
    Irrep   Nso     Nmo    
   -------------------------
     A         40      40 
   -------------------------
    Total      40      40
   -------------------------

  ==> Iterations <==

                           Total Energy        Delta E     RMS |[F,P]|

   @DF-RHF iter SAD:  -167.79445078813995   -1.67794e+02   0.00000e+00 
   @DF-RHF iter   1:  -168.93079738034663   -1.13635e+00   1.10109e-02 DIIS/ADIIS
   @DF-RHF iter   2:  -169.00177941098315   -7.09820e-02   7.67915e-03 DIIS/ADIIS
   @DF-RHF iter   3:  -169.04167010282799   -3.98907e-02   1.70550e-03 DIIS/ADIIS
   @DF-RHF iter   4:  -169.04443906749842   -2.76896e-03   5.07437e-04 DIIS/ADIIS
   @DF-RHF iter   5:  -169.04492915771186   -4.90090e-04   1.72847e-04 DIIS/ADIIS
   @DF-RHF iter   6:  -169.04499804534680   -6.88876e-05   7.18860e-05 DIIS
   @DF-RHF iter   7:  -169.04502262994404   -2.45846e-05   3.41302e-05 DIIS
   @DF-RHF iter   8:  -169.04502698631939   -4.35638e-06   1.45422e-05 DIIS
   @DF-RHF iter   9:  -169.04502796232006   -9.76001e-07   5.09907e-06 DIIS
   @DF-RHF iter  10:  -169.04502809337998   -1.31060e-07   1.19224e-06 DIIS
   @DF-RHF iter  11:  -169.04502809853383   -5.15385e-09   2.47007e-07 DIIS
   @DF-RHF iter  12:  -169.04502809869803   -1.64192e-10   4.54055e-08 DIIS
   @DF-RHF iter  13:  -169.04502809870382   -5.79803e-12   7.58804e-09 DIIS
  Energy and wave function converged.


  ==> Post-Iterations <==

    Orbital Energies [Eh]
    ---------------------

    Doubly Occupied:                                                      

       1A    -15.382881     2A    -11.095184     3A    -11.024080  
       4A    -10.994472     5A     -1.046223     6A     -0.825739  
       7A     -0.599691     8A     -0.460992     9A     -0.358521  
      10A     -0.333976    11A     -0.315021    12A     -0.260703  
      13A     -0.134264    14A     -0.104247  

    Virtual:                                                              

      15A      0.347657    16A      0.401855    17A      0.477300  
      18A      0.489568    19A      0.515372    20A      0.616508  
      21A      0.730199    22A      0.763097    23A      0.951622  
      24A      0.970083    25A      1.019713    26A      1.042784  
      27A      1.064779    28A      1.083914    29A      1.125639  
      30A      1.131569    31A      1.225212    32A      1.284044  
      33A      1.295299    34A      1.347134    35A      1.422812  
      36A      1.471089    37A      1.519550    38A      1.636665  
      39A      1.694793    40A      2.143018  

    Final Occupation by Irrep:
              A 
    DOCC [    14 ]

  @DF-RHF Final Energy:  -169.04502809870382

   => Energetics <=

    Nuclear Repulsion Energy =             82.7130420311759167
    One-Electron Energy =                -397.6441511368607848
    Two-Electron Energy =                 145.8860810069810441
    Total Energy =                       -169.0450280987038241

Computation Completed


Properties will be evaluated at   0.000000,   0.000000,   0.000000 [a0]

Properties computed using the SCF density matrix


 Multipole Moments:

 ------------------------------------------------------------------------------------
     Multipole            Electronic (a.u.)      Nuclear  (a.u.)        Total (a.u.)
 ------------------------------------------------------------------------------------

 L = 1.  Multiply by 2.5417464519 to convert [e a0] to [Debye]
 Dipole X            :         -8.1095791            7.8537242           -0.2558549
 Dipole Y            :         -8.8835869            9.1710028            0.2874160
 Dipole Z            :        -13.9965597           13.9578373           -0.0387223
 Magnitude           :                                                    0.3867416

 ------------------------------------------------------------------------------------

*** tstop() called on sophon at Tue Jul 26 11:05:23 2022
Module time:
	user time   =       2.94 seconds =       0.05 minutes
	system time =       0.21 seconds =       0.00 minutes
	total time  =          0 seconds =       0.00 minutes
Total time:
	user time   =       2.94 seconds =       0.05 minutes
	system time =       0.21 seconds =       0.00 minutes
	total time  =          0 seconds =       0.00 minutes

*** tstart() called on sophon
*** at Tue Jul 26 11:05:23 2022


         ------------------------------------------------------------
                                   SCF GRAD                          
                          Rob Parrish, Justin Turney,                
                       Andy Simmonett, and Alex Sokolov              
         ------------------------------------------------------------

  ==> Geometry <==

    Molecular point group: c1
    Full point group: C1

    Geometry (in Bohr), charge = -1, multiplicity = 1:

       Center              X                  Y                   Z               Mass       
    ------------   -----------------  -----------------  -----------------  -----------------
         C           -0.495402380000    -1.960713720000    -1.861348230000    12.000000000000
         C           -0.830318700000     0.273908320000    -0.594765730000    12.000000000000
         H           -2.336960160000     1.549918150000    -1.120730370000     1.007825032230
         H            1.139292890000    -2.996735880000    -1.041789720000     1.007825032230
         C            0.658000470000     1.196708930000     1.473397160000    12.000000000000
         N            1.865387880000     1.936914200000     3.145236890000    14.003074004430

  Nuclear repulsion =   82.713042031175917

  ==> Basis Set <==

  Basis Set: 6-31G
    Blend: 6-31G
    Number of shells: 24
    Number of basis functions: 40
    Number of Cartesian functions: 40
    Spherical Harmonics?: false
    Max angular momentum: 1

  ==> DFJKGrad: Density-Fitted SCF Gradients <==

    Gradient:                    1
    J tasked:                  Yes
    K tasked:                  Yes
    wK tasked:                  No
    OpenMP threads:              6
    Integrals threads:           6
    Memory [MiB]:            18432
    Schwarz Cutoff:          1E-12
    Fitting Condition:       1E-10

   => Auxiliary Basis Set <=

  Basis Set: (6-31G AUX)
    Blend: CC-PVDZ-JKFIT
    Number of shells: 114
    Number of basis functions: 374
    Number of Cartesian functions: 374
    Spherical Harmonics?: false
    Max angular momentum: 3


  -Total Gradient:
     Atom            X                  Y                   Z
    ------   -----------------  -----------------  -----------------
       1        0.000033138754     0.000025372861    -0.000007879420
       2       -0.000016700342    -0.000016309070    -0.000029345453
       3        0.000000997807    -0.000009293796     0.000027868120
       4       -0.000023109176    -0.000009713470     0.000018817815
       5        0.000020067542     0.000027181906     0.000009482286
       6       -0.000014394585    -0.000017238430    -0.000018943347


*** tstop() called on sophon at Tue Jul 26 11:05:24 2022
Module time:
	user time   =       0.57 seconds =       0.01 minutes
	system time =       0.04 seconds =       0.00 minutes
	total time  =          1 seconds =       0.02 minutes
Total time:
	user time   =       3.53 seconds =       0.06 minutes
	system time =       0.25 seconds =       0.00 minutes
	total time  =          1 seconds =       0.02 minutes

    Psi4 stopped on: Tuesday, 26 July 2022 11:05AM
    Psi4 wall time for execution: 0:00:00.84

*** Psi4 exiting successfully. Buy a developer a beer!

