initial_chain [Molecule(name='CHN', formula='CHN', hash='76c2dc9'), Molecule(name='CHN', formula='CHN', hash='1c2aaa5'), Molecule(name='CHN', formula='CHN', hash='0ba1fa9'), Molecule(name='CHN', formula='CHN', hash='4db3cbf'), Molecule(name='CHN', formula='CHN', hash='8ad30e5'), Molecule(name='CHN', formula='CHN', hash='e113fb4'), Molecule(name='CHN', formula='CHN', hash='e212e89'), Molecule(name='CHN', formula='CHN', hash='34d5c56'), Molecule(name='CHN', formula='CHN', hash='f55f4c2'), Molecule(name='CHN', formula='CHN', hash='ea714c8'), Molecule(name='CHN', formula='CHN', hash='f8594a9')]

k=0.100000, iteration=63

    -----------------------------------------------------------------------
          Psi4: An Open-Source Ab Initio Electronic Structure Package
                               Psi4 1.6 release

                         Git: Rev {HEAD} 77475b5 


    D. G. A. Smith, L. A. Burns, A. C. Simmonett, R. M. Parrish,
    M. C. Schieber, R. Galvelis, P. Kraus, H. Kruse, R. Di Remigio,
    A. Alenaizan, A. M. James, S. Lehtola, J. P. Misiewicz, M. Scheurer,
    R. A. Shaw, J. B. Schriber, Y. Xie, Z. L. Glick, D. A. Sirianni,
    J. S. O'Brien, J. M. Waldrop, A. Kumar, E. G. Hohenstein,
    B. P. Pritchard, B. R. Brooks, H. F. Schaefer III, A. Yu. Sokolov,
    K. Patkowski, A. E. DePrince III, U. Bozkaya, R. A. King,
    F. A. Evangelista, J. M. Turney, T. D. Crawford, C. D. Sherrill,
    J. Chem. Phys. 152(18) 184108 (2020). https://doi.org/10.1063/5.0006002

                            Additional Code Authors
    E. T. Seidl, C. L. Janssen, E. F. Valeev, M. L. Leininger,
    J. F. Gonthier, R. M. Richard, H. R. McAlexander, M. Saitow, X. Wang,
    P. Verma, M. H. Lechner, and A. Jiang

             Previous Authors, Complete List of Code Contributors,
                       and Citations for Specific Modules
    https://github.com/psi4/psi4/blob/master/codemeta.json
    https://github.com/psi4/psi4/graphs/contributors
    http://psicode.org/psi4manual/master/introduction.html#citing-psifour

    -----------------------------------------------------------------------


    Psi4 started on: Friday, 22 July 2022 11:11AM

    Process ID: 3189279
    Host:       sophon
    PSIDATADIR: /home/heepark/miniconda3/envs/qcfractal_2/share/psi4
    Memory:     23.6 GiB
    Threads:    6
    
  ==> Input QCSchema <==

--------------------------------------------------------------------------
{'driver': 'gradient',
 'extras': {},
 'id': None,
 'keywords': {},
 'model': {'basis': '6-31g', 'method': 'hf'},
 'molecule': {'fix_com': True,
              'fix_orientation': True,
              'geometry': [-1.4029281671944582, -1.5432889447627112, -4.321763961679209e-17, 0.07854348699834224,
                           0.08643834227516597, -8.79786411540066e-18, 1.3243846801957417, 1.4568506024753998,
                           2.0013679243405112e-17],
              'id': 2,
              'identifiers': {'molecular_formula': 'CHN', 'molecule_hash': '76c2dc93c370d1e8d525eb8e27815aa8ac56d277'},
              'molecular_charge': 0.0,
              'molecular_multiplicity': 1,
              'name': 'CHN',
              'provenance': {'creator': 'QCElemental',
                             'routine': 'qcelemental.molparse.from_schema',
                             'version': 'v0.24.0'},
              'schema_name': 'qcschema_molecule',
              'schema_version': 2,
              'symbols': ['C', 'N', 'H'],
              'validated': True},
 'protocols': {},
 'provenance': {'creator': 'QCElemental', 'routine': 'qcelemental.models.results', 'version': 'v0.24.0'},
 'schema_name': 'qcschema_input',
 'schema_version': 1}
--------------------------------------------------------------------------

Scratch directory: /tmp/tmp_d7n1_bn_psi_scratch/
gradient() will perform analytic gradient computation.

*** tstart() called on sophon
*** at Fri Jul 22 11:11:18 2022

   => Loading Basis Set <=

    Name: 6-31G
    Role: ORBITAL
    Keyword: BASIS
    atoms 1 entry C          line    87 file /home/heepark/miniconda3/envs/qcfractal_2/share/psi4/basis/6-31g.gbs 
    atoms 2 entry N          line   102 file /home/heepark/miniconda3/envs/qcfractal_2/share/psi4/basis/6-31g.gbs 
    atoms 3 entry H          line    26 file /home/heepark/miniconda3/envs/qcfractal_2/share/psi4/basis/6-31g.gbs 


         ---------------------------------------------------------
                                   SCF
               by Justin Turney, Rob Parrish, Andy Simmonett
                          and Daniel G. A. Smith
                              RHF Reference
                        6 Threads,  24195 MiB Core
         ---------------------------------------------------------

  ==> Geometry <==

    Molecular point group: cs
    Full point group: C_inf_v

    Geometry (in Bohr), charge = 0, multiplicity = 1:

       Center              X                  Y                   Z               Mass       
    ------------   -----------------  -----------------  -----------------  -----------------
         C           -1.402928167194    -1.543288944763     0.000000000000    12.000000000000
         N            0.078543486998     0.086438342275     0.000000000000    14.003074004430
         H            1.324384680196     1.456850602475     0.000000000000     1.007825032230

  Running in cs symmetry.

  Rotational constants: A = ************  B =      1.06932  C =      1.06932 [cm^-1]
  Rotational constants: A = ************  B =  32057.42751  C =  32057.42751 [MHz]
  Nuclear repulsion =   24.329099928976127

  Charge       = 0
  Multiplicity = 1
  Electrons    = 14
  Nalpha       = 7
  Nbeta        = 7

  ==> Algorithm <==

  SCF Algorithm Type is DF.
  DIIS enabled.
  MOM disabled.
  Fractional occupation disabled.
  Guess Type is SAD.
  Energy threshold   = 1.00e-08
  Density threshold  = 1.00e-08
  Integral threshold = 1.00e-12

  ==> Primary Basis <==

  Basis Set: 6-31G
    Blend: 6-31G
    Number of shells: 12
    Number of basis functions: 20
    Number of Cartesian functions: 20
    Spherical Harmonics?: false
    Max angular momentum: 1

   => Loading Basis Set <=

    Name: (6-31G AUX)
    Role: JKFIT
    Keyword: DF_BASIS_SCF
    atoms 1 entry C          line   121 file /home/heepark/miniconda3/envs/qcfractal_2/share/psi4/basis/cc-pvdz-jkfit.gbs 
    atoms 2 entry N          line   171 file /home/heepark/miniconda3/envs/qcfractal_2/share/psi4/basis/cc-pvdz-jkfit.gbs 
    atoms 3 entry H          line    51 file /home/heepark/miniconda3/envs/qcfractal_2/share/psi4/basis/cc-pvdz-jkfit.gbs 

  ==> Integral Setup <==

  DFHelper Memory: AOs need 0.001 GiB; user supplied 17.721 GiB. Using in-core AOs.

  ==> MemDFJK: Density-Fitted J/K Matrices <==

    J tasked:                   Yes
    K tasked:                   Yes
    wK tasked:                   No
    OpenMP threads:               6
    Memory [MiB]:             18146
    Algorithm:                 Core
    Schwarz Cutoff:           1E-12
    Mask sparsity (%):       0.0000
    Fitting Condition:        1E-10

   => Auxiliary Basis Set <=

  Basis Set: (6-31G AUX)
    Blend: CC-PVDZ-JKFIT
    Number of shells: 57
    Number of basis functions: 187
    Number of Cartesian functions: 187
    Spherical Harmonics?: false
    Max angular momentum: 3

  Minimum eigenvalue in the overlap matrix is 7.7766970732E-03.
  Reciprocal condition number of the overlap matrix is 2.1568533980E-03.
    Using symmetric orthogonalization.

  ==> Pre-Iterations <==

  SCF Guess: Superposition of Atomic Densities via on-the-fly atomic UHF (no occupation information).

   -------------------------
    Irrep   Nso     Nmo    
   -------------------------
     A'        16      16 
     A"         4       4 
   -------------------------
    Total      20      20
   -------------------------

  ==> Iterations <==

                           Total Energy        Delta E     RMS |[F,P]|

   @DF-RHF iter SAD:   -92.04295534914246   -9.20430e+01   0.00000e+00 
   @DF-RHF iter   1:   -92.79810172183632   -7.55146e-01   1.07433e-02 DIIS/ADIIS
   @DF-RHF iter   2:   -92.81285458678059   -1.47529e-02   3.97763e-03 DIIS/ADIIS
   @DF-RHF iter   3:   -92.81451625746742   -1.66167e-03   1.70596e-03 DIIS/ADIIS
   @DF-RHF iter   4:   -92.81486079460510   -3.44537e-04   2.55472e-04 DIIS/ADIIS
   @DF-RHF iter   5:   -92.81487359600378   -1.28014e-05   4.10268e-05 DIIS
   @DF-RHF iter   6:   -92.81487414730668   -5.51303e-07   4.48422e-06 DIIS
   @DF-RHF iter   7:   -92.81487415186793   -4.56124e-09   7.12835e-07 DIIS
   @DF-RHF iter   8:   -92.81487415197962   -1.11697e-10   1.53356e-07 DIIS
   @DF-RHF iter   9:   -92.81487415198437   -4.74643e-12   1.25413e-08 DIIS
   @DF-RHF iter  10:   -92.81487415198454   -1.70530e-13   2.15848e-09 DIIS
  Energy and wave function converged.


  ==> Post-Iterations <==

    Orbital Energies [Eh]
    ---------------------

    Doubly Occupied:                                                      

       1Ap   -15.607020     2Ap   -11.314879     3Ap    -1.280701  
       4Ap    -0.880669     5Ap    -0.518775     1App   -0.518775  
       6Ap    -0.481043  

    Virtual:                                                              

       7Ap     0.195488     2App    0.195488     8Ap     0.221051  
       9Ap     0.490750    10Ap     0.742383     3App    0.781234  
      11Ap     0.781234    12Ap     0.856360    13Ap     0.996445  
       4App    0.996445    14Ap     1.244769    15Ap     1.524601  
      16Ap     1.726633  

    Final Occupation by Irrep:
             Ap   App 
    DOCC [     6,    1 ]

  @DF-RHF Final Energy:   -92.81487415198454

   => Energetics <=

    Nuclear Repulsion Energy =             24.3290999289761274
    One-Electron Energy =                -173.0842278574889406
    Two-Electron Energy =                  55.9402537765282872
    Total Energy =                        -92.8148741519845260

Computation Completed


Properties will be evaluated at   0.000000,   0.000000,   0.000000 [a0]

Properties computed using the SCF density matrix


 Multipole Moments:

 ------------------------------------------------------------------------------------
     Multipole            Electronic (a.u.)      Nuclear  (a.u.)        Total (a.u.)
 ------------------------------------------------------------------------------------

 L = 1.  Multiply by 2.5417464519 to convert [e a0] to [Debye]
 Dipole X            :          7.2566619           -6.5433799            0.7132820
 Dipole Y            :          7.9824198           -7.1978147            0.7846052
 Dipole Z            :          0.0000000            0.0000000            0.0000000
 Magnitude           :                                                    1.0603662

 ------------------------------------------------------------------------------------

*** tstop() called on sophon at Fri Jul 22 11:11:18 2022
Module time:
	user time   =       1.76 seconds =       0.03 minutes
	system time =       0.10 seconds =       0.00 minutes
	total time  =          0 seconds =       0.00 minutes
Total time:
	user time   =       1.76 seconds =       0.03 minutes
	system time =       0.10 seconds =       0.00 minutes
	total time  =          0 seconds =       0.00 minutes

*** tstart() called on sophon
*** at Fri Jul 22 11:11:18 2022


         ------------------------------------------------------------
                                   SCF GRAD                          
                          Rob Parrish, Justin Turney,                
                       Andy Simmonett, and Alex Sokolov              
         ------------------------------------------------------------

  ==> Geometry <==

    Molecular point group: cs
    Full point group: C_inf_v

    Geometry (in Bohr), charge = 0, multiplicity = 1:

       Center              X                  Y                   Z               Mass       
    ------------   -----------------  -----------------  -----------------  -----------------
         C           -1.402928167194    -1.543288944763     0.000000000000    12.000000000000
         N            0.078543486998     0.086438342275     0.000000000000    14.003074004430
         H            1.324384680196     1.456850602475     0.000000000000     1.007825032230

  Nuclear repulsion =   24.329099928976127

  ==> Basis Set <==

  Basis Set: 6-31G
    Blend: 6-31G
    Number of shells: 12
    Number of basis functions: 20
    Number of Cartesian functions: 20
    Spherical Harmonics?: false
    Max angular momentum: 1

  ==> DFJKGrad: Density-Fitted SCF Gradients <==

    Gradient:                    1
    J tasked:                  Yes
    K tasked:                  Yes
    wK tasked:                  No
    OpenMP threads:              6
    Integrals threads:           6
    Memory [MiB]:            18146
    Schwarz Cutoff:          1E-12
    Fitting Condition:       1E-10

   => Auxiliary Basis Set <=

  Basis Set: (6-31G AUX)
    Blend: CC-PVDZ-JKFIT
    Number of shells: 57
    Number of basis functions: 187
    Number of Cartesian functions: 187
    Spherical Harmonics?: false
    Max angular momentum: 3


  -Total Gradient:
     Atom            X                  Y                   Z
    ------   -----------------  -----------------  -----------------
       1       -0.000021569753    -0.000024836228     0.000000000000
       2        0.000020392685     0.000024859012     0.000000000000
       3        0.000001177068    -0.000000022784     0.000000000000


*** tstop() called on sophon at Fri Jul 22 11:11:18 2022
Module time:
	user time   =       0.16 seconds =       0.00 minutes
	system time =       0.02 seconds =       0.00 minutes
	total time  =          0 seconds =       0.00 minutes
Total time:
	user time   =       1.92 seconds =       0.03 minutes
	system time =       0.13 seconds =       0.00 minutes
	total time  =          0 seconds =       0.00 minutes

    Psi4 stopped on: Friday, 22 July 2022 11:11AM
    Psi4 wall time for execution: 0:00:00.47

*** Psi4 exiting successfully. Buy a developer a beer!


    -----------------------------------------------------------------------
          Psi4: An Open-Source Ab Initio Electronic Structure Package
                               Psi4 1.6 release

                         Git: Rev {HEAD} 77475b5 


    D. G. A. Smith, L. A. Burns, A. C. Simmonett, R. M. Parrish,
    M. C. Schieber, R. Galvelis, P. Kraus, H. Kruse, R. Di Remigio,
    A. Alenaizan, A. M. James, S. Lehtola, J. P. Misiewicz, M. Scheurer,
    R. A. Shaw, J. B. Schriber, Y. Xie, Z. L. Glick, D. A. Sirianni,
    J. S. O'Brien, J. M. Waldrop, A. Kumar, E. G. Hohenstein,
    B. P. Pritchard, B. R. Brooks, H. F. Schaefer III, A. Yu. Sokolov,
    K. Patkowski, A. E. DePrince III, U. Bozkaya, R. A. King,
    F. A. Evangelista, J. M. Turney, T. D. Crawford, C. D. Sherrill,
    J. Chem. Phys. 152(18) 184108 (2020). https://doi.org/10.1063/5.0006002

                            Additional Code Authors
    E. T. Seidl, C. L. Janssen, E. F. Valeev, M. L. Leininger,
    J. F. Gonthier, R. M. Richard, H. R. McAlexander, M. Saitow, X. Wang,
    P. Verma, M. H. Lechner, and A. Jiang

             Previous Authors, Complete List of Code Contributors,
                       and Citations for Specific Modules
    https://github.com/psi4/psi4/blob/master/codemeta.json
    https://github.com/psi4/psi4/graphs/contributors
    http://psicode.org/psi4manual/master/introduction.html#citing-psifour

    -----------------------------------------------------------------------


    Psi4 started on: Friday, 22 July 2022 11:11AM

    Process ID: 3189324
    Host:       sophon
    PSIDATADIR: /home/heepark/miniconda3/envs/qcfractal_2/share/psi4
    Memory:     23.6 GiB
    Threads:    6
    
  ==> Input QCSchema <==

--------------------------------------------------------------------------
{'driver': 'gradient',
 'extras': {},
 'id': None,
 'keywords': {},
 'model': {'basis': '6-31g', 'method': 'hf'},
 'molecule': {'fix_com': True,
              'fix_orientation': True,
              'geometry': [-1.17882114, -1.60496221, 0.0, -0.24584626, 0.40430148, 0.0, 1.4246674, 1.20066073, 0.0],
              'id': 20,
              'identifiers': {'molecular_formula': 'CHN', 'molecule_hash': 'c423d99447c1db6943240fb85652dfc1e2abb7fc'},
              'molecular_charge': 0.0,
              'molecular_multiplicity': 1,
              'name': 'CHN',
              'provenance': {'creator': 'QCElemental',
                             'routine': 'qcelemental.molparse.from_schema',
                             'version': 'v0.24.0'},
              'schema_name': 'qcschema_molecule',
              'schema_version': 2,
              'symbols': ['C', 'N', 'H'],
              'validated': True},
 'protocols': {},
 'provenance': {'creator': 'QCElemental', 'routine': 'qcelemental.models.results', 'version': 'v0.24.0'},
 'schema_name': 'qcschema_input',
 'schema_version': 1}
--------------------------------------------------------------------------

Scratch directory: /tmp/tmpwd0znqy8_psi_scratch/
gradient() will perform analytic gradient computation.

*** tstart() called on sophon
*** at Fri Jul 22 11:11:24 2022

   => Loading Basis Set <=

    Name: 6-31G
    Role: ORBITAL
    Keyword: BASIS
    atoms 1 entry C          line    87 file /home/heepark/miniconda3/envs/qcfractal_2/share/psi4/basis/6-31g.gbs 
    atoms 2 entry N          line   102 file /home/heepark/miniconda3/envs/qcfractal_2/share/psi4/basis/6-31g.gbs 
    atoms 3 entry H          line    26 file /home/heepark/miniconda3/envs/qcfractal_2/share/psi4/basis/6-31g.gbs 


         ---------------------------------------------------------
                                   SCF
               by Justin Turney, Rob Parrish, Andy Simmonett
                          and Daniel G. A. Smith
                              RHF Reference
                        6 Threads,  24195 MiB Core
         ---------------------------------------------------------

  ==> Geometry <==

    Molecular point group: cs
    Full point group: Cs

    Geometry (in Bohr), charge = 0, multiplicity = 1:

       Center              X                  Y                   Z               Mass       
    ------------   -----------------  -----------------  -----------------  -----------------
         C           -1.178821140000    -1.604962210000     0.000000000000    12.000000000000
         N           -0.245846260000     0.404301480000     0.000000000000    14.003074004430
         H            1.424667400000     1.200660730000     0.000000000000     1.007825032230

  Running in cs symmetry.

  Rotational constants: A =     20.96870  B =      1.17236  C =      1.11029 [cm^-1]
  Rotational constants: A = 628625.76380  B =  35146.52851  C =  33285.53117 [MHz]
  Nuclear repulsion =   24.309120392806573

  Charge       = 0
  Multiplicity = 1
  Electrons    = 14
  Nalpha       = 7
  Nbeta        = 7

  ==> Algorithm <==

  SCF Algorithm Type is DF.
  DIIS enabled.
  MOM disabled.
  Fractional occupation disabled.
  Guess Type is SAD.
  Energy threshold   = 1.00e-08
  Density threshold  = 1.00e-08
  Integral threshold = 1.00e-12

  ==> Primary Basis <==

  Basis Set: 6-31G
    Blend: 6-31G
    Number of shells: 12
    Number of basis functions: 20
    Number of Cartesian functions: 20
    Spherical Harmonics?: false
    Max angular momentum: 1

   => Loading Basis Set <=

    Name: (6-31G AUX)
    Role: JKFIT
    Keyword: DF_BASIS_SCF
    atoms 1 entry C          line   121 file /home/heepark/miniconda3/envs/qcfractal_2/share/psi4/basis/cc-pvdz-jkfit.gbs 
    atoms 2 entry N          line   171 file /home/heepark/miniconda3/envs/qcfractal_2/share/psi4/basis/cc-pvdz-jkfit.gbs 
    atoms 3 entry H          line    51 file /home/heepark/miniconda3/envs/qcfractal_2/share/psi4/basis/cc-pvdz-jkfit.gbs 

  ==> Integral Setup <==

  DFHelper Memory: AOs need 0.001 GiB; user supplied 17.721 GiB. Using in-core AOs.

  ==> MemDFJK: Density-Fitted J/K Matrices <==

    J tasked:                   Yes
    K tasked:                   Yes
    wK tasked:                   No
    OpenMP threads:               6
    Memory [MiB]:             18146
    Algorithm:                 Core
    Schwarz Cutoff:           1E-12
    Mask sparsity (%):       0.0000
    Fitting Condition:        1E-10

   => Auxiliary Basis Set <=

  Basis Set: (6-31G AUX)
    Blend: CC-PVDZ-JKFIT
    Number of shells: 57
    Number of basis functions: 187
    Number of Cartesian functions: 187
    Spherical Harmonics?: false
    Max angular momentum: 3

  Minimum eigenvalue in the overlap matrix is 1.0209362554E-02.
  Reciprocal condition number of the overlap matrix is 2.7731078147E-03.
    Using symmetric orthogonalization.

  ==> Pre-Iterations <==

  SCF Guess: Superposition of Atomic Densities via on-the-fly atomic UHF (no occupation information).

   -------------------------
    Irrep   Nso     Nmo    
   -------------------------
     A'        16      16 
     A"         4       4 
   -------------------------
    Total      20      20
   -------------------------

  ==> Iterations <==

                           Total Energy        Delta E     RMS |[F,P]|

   @DF-RHF iter SAD:   -92.04430428875622   -9.20443e+01   0.00000e+00 
   @DF-RHF iter   1:   -92.78299054530029   -7.38686e-01   1.20803e-02 DIIS/ADIIS
   @DF-RHF iter   2:   -92.79981849434947   -1.68279e-02   5.62398e-03 DIIS/ADIIS
   @DF-RHF iter   3:   -92.80331773643994   -3.49924e-03   2.14420e-03 DIIS/ADIIS
   @DF-RHF iter   4:   -92.80390158264291   -5.83846e-04   3.21661e-04 DIIS/ADIIS
   @DF-RHF iter   5:   -92.80393808734092   -3.65047e-05   1.15178e-04 DIIS/ADIIS
   @DF-RHF iter   6:   -92.80394731886786   -9.23153e-06   4.48703e-05 DIIS
   @DF-RHF iter   7:   -92.80394913626574   -1.81740e-06   1.04377e-05 DIIS
   @DF-RHF iter   8:   -92.80394921000232   -7.37366e-08   1.83387e-06 DIIS
   @DF-RHF iter   9:   -92.80394921168752   -1.68521e-09   4.63361e-07 DIIS
   @DF-RHF iter  10:   -92.80394921181667   -1.29148e-10   1.07254e-07 DIIS
   @DF-RHF iter  11:   -92.80394921182069   -4.02167e-12   1.57265e-08 DIIS
   @DF-RHF iter  12:   -92.80394921182085   -1.56319e-13   2.53340e-09 DIIS
  Energy and wave function converged.


  ==> Post-Iterations <==

    Orbital Energies [Eh]
    ---------------------

    Doubly Occupied:                                                      

       1Ap   -15.605438     2Ap   -11.322713     3Ap    -1.292293  
       4Ap    -0.858683     5Ap    -0.533144     1App   -0.516642  
       6Ap    -0.482569  

    Virtual:                                                              

       7Ap     0.144547     2App    0.189374     8Ap     0.244897  
       9Ap     0.499895    10Ap     0.766950     3App    0.774278  
      11Ap     0.808178    12Ap     0.872683     4App    0.999623  
      13Ap     1.010682    14Ap     1.195050    15Ap     1.320168  
      16Ap     1.572248  

    Final Occupation by Irrep:
             Ap   App 
    DOCC [     6,    1 ]

  @DF-RHF Final Energy:   -92.80394921182085

   => Energetics <=

    Nuclear Repulsion Energy =             24.3091203928065731
    One-Electron Energy =                -173.0031763036223822
    Two-Electron Energy =                  55.8901066989949769
    Total Energy =                        -92.8039492118208500

Computation Completed


Properties will be evaluated at   0.000000,   0.000000,   0.000000 [a0]

Properties computed using the SCF density matrix


 Multipole Moments:

 ------------------------------------------------------------------------------------
     Multipole            Electronic (a.u.)      Nuclear  (a.u.)        Total (a.u.)
 ------------------------------------------------------------------------------------

 L = 1.  Multiply by 2.5417464519 to convert [e a0] to [Debye]
 Dipole X            :          8.2635682           -7.3691833            0.8943849
 Dipole Y            :          6.0464005           -5.5990022            0.4473983
 Dipole Z            :          0.0000000            0.0000000            0.0000000
 Magnitude           :                                                    1.0000448

 ------------------------------------------------------------------------------------

*** tstop() called on sophon at Fri Jul 22 11:11:24 2022
Module time:
	user time   =       2.60 seconds =       0.04 minutes
	system time =       0.20 seconds =       0.00 minutes
	total time  =          0 seconds =       0.00 minutes
Total time:
	user time   =       2.60 seconds =       0.04 minutes
	system time =       0.20 seconds =       0.00 minutes
	total time  =          0 seconds =       0.00 minutes

*** tstart() called on sophon
*** at Fri Jul 22 11:11:24 2022


         ------------------------------------------------------------
                                   SCF GRAD                          
                          Rob Parrish, Justin Turney,                
                       Andy Simmonett, and Alex Sokolov              
         ------------------------------------------------------------

  ==> Geometry <==

    Molecular point group: cs
    Full point group: Cs

    Geometry (in Bohr), charge = 0, multiplicity = 1:

       Center              X                  Y                   Z               Mass       
    ------------   -----------------  -----------------  -----------------  -----------------
         C           -1.178821140000    -1.604962210000     0.000000000000    12.000000000000
         N           -0.245846260000     0.404301480000     0.000000000000    14.003074004430
         H            1.424667400000     1.200660730000     0.000000000000     1.007825032230

  Nuclear repulsion =   24.309120392806573

  ==> Basis Set <==

  Basis Set: 6-31G
    Blend: 6-31G
    Number of shells: 12
    Number of basis functions: 20
    Number of Cartesian functions: 20
    Spherical Harmonics?: false
    Max angular momentum: 1

  ==> DFJKGrad: Density-Fitted SCF Gradients <==

    Gradient:                    1
    J tasked:                  Yes
    K tasked:                  Yes
    wK tasked:                  No
    OpenMP threads:              6
    Integrals threads:           6
    Memory [MiB]:            18146
    Schwarz Cutoff:          1E-12
    Fitting Condition:       1E-10

   => Auxiliary Basis Set <=

  Basis Set: (6-31G AUX)
    Blend: CC-PVDZ-JKFIT
    Number of shells: 57
    Number of basis functions: 187
    Number of Cartesian functions: 187
    Spherical Harmonics?: false
    Max angular momentum: 3


  -Total Gradient:
     Atom            X                  Y                   Z
    ------   -----------------  -----------------  -----------------
       1        0.018639179354     0.004390204524     0.000000000000
       2       -0.016627986291     0.016535519417     0.000000000000
       3       -0.002011193063    -0.020925723941     0.000000000000


*** tstop() called on sophon at Fri Jul 22 11:11:24 2022
Module time:
	user time   =       0.20 seconds =       0.00 minutes
	system time =       0.00 seconds =       0.00 minutes
	total time  =          0 seconds =       0.00 minutes
Total time:
	user time   =       2.81 seconds =       0.05 minutes
	system time =       0.20 seconds =       0.00 minutes
	total time  =          0 seconds =       0.00 minutes

    Psi4 stopped on: Friday, 22 July 2022 11:11AM
    Psi4 wall time for execution: 0:00:00.65

*** Psi4 exiting successfully. Buy a developer a beer!


    -----------------------------------------------------------------------
          Psi4: An Open-Source Ab Initio Electronic Structure Package
                               Psi4 1.6 release

                         Git: Rev {HEAD} 77475b5 


    D. G. A. Smith, L. A. Burns, A. C. Simmonett, R. M. Parrish,
    M. C. Schieber, R. Galvelis, P. Kraus, H. Kruse, R. Di Remigio,
    A. Alenaizan, A. M. James, S. Lehtola, J. P. Misiewicz, M. Scheurer,
    R. A. Shaw, J. B. Schriber, Y. Xie, Z. L. Glick, D. A. Sirianni,
    J. S. O'Brien, J. M. Waldrop, A. Kumar, E. G. Hohenstein,
    B. P. Pritchard, B. R. Brooks, H. F. Schaefer III, A. Yu. Sokolov,
    K. Patkowski, A. E. DePrince III, U. Bozkaya, R. A. King,
    F. A. Evangelista, J. M. Turney, T. D. Crawford, C. D. Sherrill,
    J. Chem. Phys. 152(18) 184108 (2020). https://doi.org/10.1063/5.0006002

                            Additional Code Authors
    E. T. Seidl, C. L. Janssen, E. F. Valeev, M. L. Leininger,
    J. F. Gonthier, R. M. Richard, H. R. McAlexander, M. Saitow, X. Wang,
    P. Verma, M. H. Lechner, and A. Jiang

             Previous Authors, Complete List of Code Contributors,
                       and Citations for Specific Modules
    https://github.com/psi4/psi4/blob/master/codemeta.json
    https://github.com/psi4/psi4/graphs/contributors
    http://psicode.org/psi4manual/master/introduction.html#citing-psifour

    -----------------------------------------------------------------------


    Psi4 started on: Friday, 22 July 2022 11:11AM

    Process ID: 3189320
    Host:       sophon
    PSIDATADIR: /home/heepark/miniconda3/envs/qcfractal_2/share/psi4
    Memory:     23.6 GiB
    Threads:    6
    
  ==> Input QCSchema <==

--------------------------------------------------------------------------
{'driver': 'gradient',
 'extras': {},
 'id': None,
 'keywords': {},
 'model': {'basis': '6-31g', 'method': 'hf'},
 'molecule': {'fix_com': True,
              'fix_orientation': True,
              'geometry': [-0.86133701, -1.53037034, 0.0, -0.52967755, 0.69333946, 0.0, 1.39101457, 0.83703089, 0.0],
              'id': 24,
              'identifiers': {'molecular_formula': 'CHN', 'molecule_hash': '960466e42e36fe9f708972efb79ae05d57d52e9d'},
              'molecular_charge': 0.0,
              'molecular_multiplicity': 1,
              'name': 'CHN',
              'provenance': {'creator': 'QCElemental',
                             'routine': 'qcelemental.molparse.from_schema',
                             'version': 'v0.24.0'},
              'schema_name': 'qcschema_molecule',
              'schema_version': 2,
              'symbols': ['C', 'N', 'H'],
              'validated': True},
 'protocols': {},
 'provenance': {'creator': 'QCElemental', 'routine': 'qcelemental.models.results', 'version': 'v0.24.0'},
 'schema_name': 'qcschema_input',
 'schema_version': 1}
--------------------------------------------------------------------------

Scratch directory: /tmp/tmpaveecprm_psi_scratch/
gradient() will perform analytic gradient computation.

*** tstart() called on sophon
*** at Fri Jul 22 11:11:24 2022

   => Loading Basis Set <=

    Name: 6-31G
    Role: ORBITAL
    Keyword: BASIS
    atoms 1 entry C          line    87 file /home/heepark/miniconda3/envs/qcfractal_2/share/psi4/basis/6-31g.gbs 
    atoms 2 entry N          line   102 file /home/heepark/miniconda3/envs/qcfractal_2/share/psi4/basis/6-31g.gbs 
    atoms 3 entry H          line    26 file /home/heepark/miniconda3/envs/qcfractal_2/share/psi4/basis/6-31g.gbs 


         ---------------------------------------------------------
                                   SCF
               by Justin Turney, Rob Parrish, Andy Simmonett
                          and Daniel G. A. Smith
                              RHF Reference
                        6 Threads,  24195 MiB Core
         ---------------------------------------------------------

  ==> Geometry <==

    Molecular point group: cs
    Full point group: Cs

    Geometry (in Bohr), charge = 0, multiplicity = 1:

       Center              X                  Y                   Z               Mass       
    ------------   -----------------  -----------------  -----------------  -----------------
         C           -0.861337010000    -1.530370340000     0.000000000000    12.000000000000
         N           -0.529677550000     0.693339460000     0.000000000000    14.003074004430
         H            1.391014570000     0.837030890000     0.000000000000     1.007825032230

  Running in cs symmetry.

  Rotational constants: A =      6.39795  B =      1.47136  C =      1.19625 [cm^-1]
  Rotational constants: A = 191805.83783  B =  44110.16582  C =  35862.71037 [MHz]
  Nuclear repulsion =   24.151258046882432

  Charge       = 0
  Multiplicity = 1
  Electrons    = 14
  Nalpha       = 7
  Nbeta        = 7

  ==> Algorithm <==

  SCF Algorithm Type is DF.
  DIIS enabled.
  MOM disabled.
  Fractional occupation disabled.
  Guess Type is SAD.
  Energy threshold   = 1.00e-08
  Density threshold  = 1.00e-08
  Integral threshold = 1.00e-12

  ==> Primary Basis <==

  Basis Set: 6-31G
    Blend: 6-31G
    Number of shells: 12
    Number of basis functions: 20
    Number of Cartesian functions: 20
    Spherical Harmonics?: false
    Max angular momentum: 1

   => Loading Basis Set <=

    Name: (6-31G AUX)
    Role: JKFIT
    Keyword: DF_BASIS_SCF
    atoms 1 entry C          line   121 file /home/heepark/miniconda3/envs/qcfractal_2/share/psi4/basis/cc-pvdz-jkfit.gbs 
    atoms 2 entry N          line   171 file /home/heepark/miniconda3/envs/qcfractal_2/share/psi4/basis/cc-pvdz-jkfit.gbs 
    atoms 3 entry H          line    51 file /home/heepark/miniconda3/envs/qcfractal_2/share/psi4/basis/cc-pvdz-jkfit.gbs 

  ==> Integral Setup <==

  DFHelper Memory: AOs need 0.001 GiB; user supplied 17.721 GiB. Using in-core AOs.

  ==> MemDFJK: Density-Fitted J/K Matrices <==

    J tasked:                   Yes
    K tasked:                   Yes
    wK tasked:                   No
    OpenMP threads:               6
    Memory [MiB]:             18146
    Algorithm:                 Core
    Schwarz Cutoff:           1E-12
    Mask sparsity (%):       0.0000
    Fitting Condition:        1E-10

   => Auxiliary Basis Set <=

  Basis Set: (6-31G AUX)
    Blend: CC-PVDZ-JKFIT
    Number of shells: 57
    Number of basis functions: 187
    Number of Cartesian functions: 187
    Spherical Harmonics?: false
    Max angular momentum: 3

  Minimum eigenvalue in the overlap matrix is 1.0693811271E-02.
  Reciprocal condition number of the overlap matrix is 2.7758902947E-03.
    Using symmetric orthogonalization.

  ==> Pre-Iterations <==

  SCF Guess: Superposition of Atomic Densities via on-the-fly atomic UHF (no occupation information).

   -------------------------
    Irrep   Nso     Nmo    
   -------------------------
     A'        16      16 
     A"         4       4 
   -------------------------
    Total      20      20
   -------------------------

  ==> Iterations <==

                           Total Energy        Delta E     RMS |[F,P]|

   @DF-RHF iter SAD:   -92.04529838365052   -9.20453e+01   0.00000e+00 
   @DF-RHF iter   1:   -92.73734677856763   -6.92048e-01   1.52077e-02 DIIS/ADIIS
   @DF-RHF iter   2:   -92.76060424106912   -2.32575e-02   9.45586e-03 DIIS/ADIIS
   @DF-RHF iter   3:   -92.77102536145142   -1.04211e-02   2.70662e-03 DIIS/ADIIS
   @DF-RHF iter   4:   -92.77217382282052   -1.14846e-03   4.85149e-04 DIIS/ADIIS
   @DF-RHF iter   5:   -92.77231123541557   -1.37413e-04   2.33277e-04 DIIS/ADIIS
   @DF-RHF iter   6:   -92.77235685974858   -4.56243e-05   7.82666e-05 DIIS
   @DF-RHF iter   7:   -92.77236131268890   -4.45294e-06   1.82499e-05 DIIS
   @DF-RHF iter   8:   -92.77236147996143   -1.67273e-07   3.74166e-06 DIIS
   @DF-RHF iter   9:   -92.77236148874124   -8.77981e-09   1.07936e-06 DIIS
   @DF-RHF iter  10:   -92.77236148944289   -7.01647e-10   2.57757e-07 DIIS
   @DF-RHF iter  11:   -92.77236148946366   -2.07763e-11   2.47878e-08 DIIS
   @DF-RHF iter  12:   -92.77236148946393   -2.70006e-13   3.53077e-09 DIIS
  Energy and wave function converged.


  ==> Post-Iterations <==

    Orbital Energies [Eh]
    ---------------------

    Doubly Occupied:                                                      

       1Ap   -15.614491     2Ap   -11.342474     3Ap    -1.326055  
       4Ap    -0.785904     5Ap    -0.574503     1App   -0.517305  
       6Ap    -0.489389  

    Virtual:                                                              

       7Ap     0.111742     2App    0.174197     8Ap     0.225486  
       9Ap     0.497492    10Ap     0.745652     3App    0.756173  
      11Ap     0.803278    12Ap     0.838084     4App    1.003007  
      13Ap     1.032502    14Ap     1.157775    15Ap     1.241237  
      16Ap     1.597226  

    Final Occupation by Irrep:
             Ap   App 
    DOCC [     6,    1 ]

  @DF-RHF Final Energy:   -92.77236148946393

   => Energetics <=

    Nuclear Repulsion Energy =             24.1512580468824325
    One-Electron Energy =                -172.5469968762994313
    Two-Electron Energy =                  55.6233773399530520
    Total Energy =                        -92.7723614894639326

Computation Completed


Properties will be evaluated at   0.000000,   0.000000,   0.000000 [a0]

Properties computed using the SCF density matrix


 Multipole Moments:

 ------------------------------------------------------------------------------------
     Multipole            Electronic (a.u.)      Nuclear  (a.u.)        Total (a.u.)
 ------------------------------------------------------------------------------------

 L = 1.  Multiply by 2.5417464519 to convert [e a0] to [Debye]
 Dipole X            :          8.2979398           -7.4847503            0.8131895
 Dipole Y            :          3.5732012           -3.4918149            0.0813862
 Dipole Z            :          0.0000000            0.0000000            0.0000000
 Magnitude           :                                                    0.8172520

 ------------------------------------------------------------------------------------

*** tstop() called on sophon at Fri Jul 22 11:11:24 2022
Module time:
	user time   =       2.18 seconds =       0.04 minutes
	system time =       0.27 seconds =       0.00 minutes
	total time  =          0 seconds =       0.00 minutes
Total time:
	user time   =       2.18 seconds =       0.04 minutes
	system time =       0.27 seconds =       0.00 minutes
	total time  =          0 seconds =       0.00 minutes

*** tstart() called on sophon
*** at Fri Jul 22 11:11:24 2022


         ------------------------------------------------------------
                                   SCF GRAD                          
                          Rob Parrish, Justin Turney,                
                       Andy Simmonett, and Alex Sokolov              
         ------------------------------------------------------------

  ==> Geometry <==

    Molecular point group: cs
    Full point group: Cs

    Geometry (in Bohr), charge = 0, multiplicity = 1:

       Center              X                  Y                   Z               Mass       
    ------------   -----------------  -----------------  -----------------  -----------------
         C           -0.861337010000    -1.530370340000     0.000000000000    12.000000000000
         N           -0.529677550000     0.693339460000     0.000000000000    14.003074004430
         H            1.391014570000     0.837030890000     0.000000000000     1.007825032230

  Nuclear repulsion =   24.151258046882432

  ==> Basis Set <==

  Basis Set: 6-31G
    Blend: 6-31G
    Number of shells: 12
    Number of basis functions: 20
    Number of Cartesian functions: 20
    Spherical Harmonics?: false
    Max angular momentum: 1

  ==> DFJKGrad: Density-Fitted SCF Gradients <==

    Gradient:                    1
    J tasked:                  Yes
    K tasked:                  Yes
    wK tasked:                  No
    OpenMP threads:              6
    Integrals threads:           6
    Memory [MiB]:            18146
    Schwarz Cutoff:          1E-12
    Fitting Condition:       1E-10

   => Auxiliary Basis Set <=

  Basis Set: (6-31G AUX)
    Blend: CC-PVDZ-JKFIT
    Number of shells: 57
    Number of basis functions: 187
    Number of Cartesian functions: 187
    Spherical Harmonics?: false
    Max angular momentum: 3


  -Total Gradient:
     Atom            X                  Y                   Z
    ------   -----------------  -----------------  -----------------
       1        0.031746273944     0.020110335306     0.000000000000
       2       -0.027590115040     0.013482720833     0.000000000000
       3       -0.004156158905    -0.033593056139     0.000000000000


*** tstop() called on sophon at Fri Jul 22 11:11:24 2022
Module time:
	user time   =       0.43 seconds =       0.01 minutes
	system time =       0.04 seconds =       0.00 minutes
	total time  =          0 seconds =       0.00 minutes
Total time:
	user time   =       2.62 seconds =       0.04 minutes
	system time =       0.31 seconds =       0.01 minutes
	total time  =          0 seconds =       0.00 minutes

    Psi4 stopped on: Friday, 22 July 2022 11:11AM
    Psi4 wall time for execution: 0:00:00.65

*** Psi4 exiting successfully. Buy a developer a beer!


    -----------------------------------------------------------------------
          Psi4: An Open-Source Ab Initio Electronic Structure Package
                               Psi4 1.6 release

                         Git: Rev {HEAD} 77475b5 


    D. G. A. Smith, L. A. Burns, A. C. Simmonett, R. M. Parrish,
    M. C. Schieber, R. Galvelis, P. Kraus, H. Kruse, R. Di Remigio,
    A. Alenaizan, A. M. James, S. Lehtola, J. P. Misiewicz, M. Scheurer,
    R. A. Shaw, J. B. Schriber, Y. Xie, Z. L. Glick, D. A. Sirianni,
    J. S. O'Brien, J. M. Waldrop, A. Kumar, E. G. Hohenstein,
    B. P. Pritchard, B. R. Brooks, H. F. Schaefer III, A. Yu. Sokolov,
    K. Patkowski, A. E. DePrince III, U. Bozkaya, R. A. King,
    F. A. Evangelista, J. M. Turney, T. D. Crawford, C. D. Sherrill,
    J. Chem. Phys. 152(18) 184108 (2020). https://doi.org/10.1063/5.0006002

                            Additional Code Authors
    E. T. Seidl, C. L. Janssen, E. F. Valeev, M. L. Leininger,
    J. F. Gonthier, R. M. Richard, H. R. McAlexander, M. Saitow, X. Wang,
    P. Verma, M. H. Lechner, and A. Jiang

             Previous Authors, Complete List of Code Contributors,
                       and Citations for Specific Modules
    https://github.com/psi4/psi4/blob/master/codemeta.json
    https://github.com/psi4/psi4/graphs/contributors
    http://psicode.org/psi4manual/master/introduction.html#citing-psifour

    -----------------------------------------------------------------------


    Psi4 started on: Friday, 22 July 2022 11:11AM

    Process ID: 3189361
    Host:       sophon
    PSIDATADIR: /home/heepark/miniconda3/envs/qcfractal_2/share/psi4
    Memory:     23.6 GiB
    Threads:    6
    
  ==> Input QCSchema <==

--------------------------------------------------------------------------
{'driver': 'gradient',
 'extras': {},
 'id': None,
 'keywords': {},
 'model': {'basis': '6-31g', 'method': 'hf'},
 'molecule': {'fix_com': True,
              'fix_orientation': True,
              'geometry': [-0.56677876, -1.3996902, 0.0, -0.77286359, 0.84909375, 0.0, 1.33964235, 0.55059645, 0.0],
              'id': 19,
              'identifiers': {'molecular_formula': 'CHN', 'molecule_hash': '422ac68736b27107eb4d831902f2b9f1edf23ab8'},
              'molecular_charge': 0.0,
              'molecular_multiplicity': 1,
              'name': 'CHN',
              'provenance': {'creator': 'QCElemental',
                             'routine': 'qcelemental.molparse.from_schema',
                             'version': 'v0.24.0'},
              'schema_name': 'qcschema_molecule',
              'schema_version': 2,
              'symbols': ['C', 'N', 'H'],
              'validated': True},
 'protocols': {},
 'provenance': {'creator': 'QCElemental', 'routine': 'qcelemental.models.results', 'version': 'v0.24.0'},
 'schema_name': 'qcschema_input',
 'schema_version': 1}
--------------------------------------------------------------------------

Scratch directory: /tmp/tmpo4gn3bvy_psi_scratch/
gradient() will perform analytic gradient computation.

*** tstart() called on sophon
*** at Fri Jul 22 11:11:26 2022

   => Loading Basis Set <=

    Name: 6-31G
    Role: ORBITAL
    Keyword: BASIS
    atoms 1 entry C          line    87 file /home/heepark/miniconda3/envs/qcfractal_2/share/psi4/basis/6-31g.gbs 
    atoms 2 entry N          line   102 file /home/heepark/miniconda3/envs/qcfractal_2/share/psi4/basis/6-31g.gbs 
    atoms 3 entry H          line    26 file /home/heepark/miniconda3/envs/qcfractal_2/share/psi4/basis/6-31g.gbs 


         ---------------------------------------------------------
                                   SCF
               by Justin Turney, Rob Parrish, Andy Simmonett
                          and Daniel G. A. Smith
                              RHF Reference
                        6 Threads,  24195 MiB Core
         ---------------------------------------------------------

  ==> Geometry <==

    Molecular point group: cs
    Full point group: Cs

    Geometry (in Bohr), charge = 0, multiplicity = 1:

       Center              X                  Y                   Z               Mass       
    ------------   -----------------  -----------------  -----------------  -----------------
         C           -0.566778760000    -1.399690200000     0.000000000000    12.000000000000
         N           -0.772863590000     0.849093750000     0.000000000000    14.003074004430
         H            1.339642350000     0.550596450000     0.000000000000     1.007825032230

  Running in cs symmetry.

  Rotational constants: A =      4.30921  B =      1.77222  C =      1.25577 [cm^-1]
  Rotational constants: A = 129186.89240  B =  53129.67526  C =  37646.92221 [MHz]
  Nuclear repulsion =   24.079825775522234

  Charge       = 0
  Multiplicity = 1
  Electrons    = 14
  Nalpha       = 7
  Nbeta        = 7

  ==> Algorithm <==

  SCF Algorithm Type is DF.
  DIIS enabled.
  MOM disabled.
  Fractional occupation disabled.
  Guess Type is SAD.
  Energy threshold   = 1.00e-08
  Density threshold  = 1.00e-08
  Integral threshold = 1.00e-12

  ==> Primary Basis <==

  Basis Set: 6-31G
    Blend: 6-31G
    Number of shells: 12
    Number of basis functions: 20
    Number of Cartesian functions: 20
    Spherical Harmonics?: false
    Max angular momentum: 1

   => Loading Basis Set <=

    Name: (6-31G AUX)
    Role: JKFIT
    Keyword: DF_BASIS_SCF
    atoms 1 entry C          line   121 file /home/heepark/miniconda3/envs/qcfractal_2/share/psi4/basis/cc-pvdz-jkfit.gbs 
    atoms 2 entry N          line   171 file /home/heepark/miniconda3/envs/qcfractal_2/share/psi4/basis/cc-pvdz-jkfit.gbs 
    atoms 3 entry H          line    51 file /home/heepark/miniconda3/envs/qcfractal_2/share/psi4/basis/cc-pvdz-jkfit.gbs 

  ==> Integral Setup <==

  DFHelper Memory: AOs need 0.001 GiB; user supplied 17.721 GiB. Using in-core AOs.

  ==> MemDFJK: Density-Fitted J/K Matrices <==

    J tasked:                   Yes
    K tasked:                   Yes
    wK tasked:                   No
    OpenMP threads:               6
    Memory [MiB]:             18146
    Algorithm:                 Core
    Schwarz Cutoff:           1E-12
    Mask sparsity (%):       0.0000
    Fitting Condition:        1E-10

   => Auxiliary Basis Set <=

  Basis Set: (6-31G AUX)
    Blend: CC-PVDZ-JKFIT
    Number of shells: 57
    Number of basis functions: 187
    Number of Cartesian functions: 187
    Spherical Harmonics?: false
    Max angular momentum: 3

  Minimum eigenvalue in the overlap matrix is 1.0809247701E-02.
  Reciprocal condition number of the overlap matrix is 2.7170077886E-03.
    Using symmetric orthogonalization.

  ==> Pre-Iterations <==

  SCF Guess: Superposition of Atomic Densities via on-the-fly atomic UHF (no occupation information).

   -------------------------
    Irrep   Nso     Nmo    
   -------------------------
     A'        16      16 
     A"         4       4 
   -------------------------
    Total      20      20
   -------------------------

  ==> Iterations <==

                           Total Energy        Delta E     RMS |[F,P]|

   @DF-RHF iter SAD:   -92.06138577296099   -9.20614e+01   0.00000e+00 
   @DF-RHF iter   1:   -92.70372640546060   -6.42341e-01   1.54246e-02 DIIS/ADIIS
   @DF-RHF iter   2:   -92.73081629794858   -2.70899e-02   9.95775e-03 DIIS/ADIIS
   @DF-RHF iter   3:   -92.74188845213746   -1.10722e-02   2.53233e-03 DIIS/ADIIS
   @DF-RHF iter   4:   -92.74283516900969   -9.46717e-04   3.87258e-04 DIIS/ADIIS
   @DF-RHF iter   5:   -92.74289392979392   -5.87608e-05   1.30005e-04 DIIS/ADIIS
   @DF-RHF iter   6:   -92.74290380668039   -9.87689e-06   4.80866e-05 DIIS
   @DF-RHF iter   7:   -92.74290536404652   -1.55737e-06   1.50852e-05 DIIS
   @DF-RHF iter   8:   -92.74290552861311   -1.64567e-07   2.46883e-06 DIIS
   @DF-RHF iter   9:   -92.74290553182503   -3.21192e-09   3.15864e-07 DIIS
   @DF-RHF iter  10:   -92.74290553186096   -3.59250e-11   4.74774e-08 DIIS
   @DF-RHF iter  11:   -92.74290553186212   -1.16529e-12   1.20608e-08 DIIS
   @DF-RHF iter  12:   -92.74290553186221   -8.52651e-14   3.26722e-09 DIIS
  Energy and wave function converged.


  ==> Post-Iterations <==

    Orbital Energies [Eh]
    ---------------------

    Doubly Occupied:                                                      

       1Ap   -15.642837     2Ap   -11.348084     3Ap    -1.356159  
       4Ap    -0.703304     5Ap    -0.628142     1App   -0.527935  
       6Ap    -0.497445  

    Virtual:                                                              

       7Ap     0.135877     2App    0.165600     8Ap     0.185813  
       9Ap     0.486305    10Ap     0.739230     3App    0.745972  
      11Ap     0.773775    12Ap     0.859917     4App    0.997219  
      13Ap     1.010922    14Ap     1.054611    15Ap     1.190758  
      16Ap     1.568673  

    Final Occupation by Irrep:
             Ap   App 
    DOCC [     6,    1 ]

  @DF-RHF Final Energy:   -92.74290553186221

   => Energetics <=

    Nuclear Repulsion Energy =             24.0798257755222345
    One-Electron Energy =                -172.2376537471118070
    Two-Electron Energy =                  55.4149224397273628
    Total Energy =                        -92.7429055318622062

Computation Completed


Properties will be evaluated at   0.000000,   0.000000,   0.000000 [a0]

Properties computed using the SCF density matrix


 Multipole Moments:

 ------------------------------------------------------------------------------------
     Multipole            Electronic (a.u.)      Nuclear  (a.u.)        Total (a.u.)
 ------------------------------------------------------------------------------------

 L = 1.  Multiply by 2.5417464519 to convert [e a0] to [Debye]
 Dipole X            :          8.1075540           -7.4710753            0.6364787
 Dipole Y            :          1.8951882           -1.9038885           -0.0087003
 Dipole Z            :          0.0000000            0.0000000            0.0000000
 Magnitude           :                                                    0.6365381

 ------------------------------------------------------------------------------------

*** tstop() called on sophon at Fri Jul 22 11:11:27 2022
Module time:
	user time   =       2.50 seconds =       0.04 minutes
	system time =       0.22 seconds =       0.00 minutes
	total time  =          1 seconds =       0.02 minutes
Total time:
	user time   =       2.50 seconds =       0.04 minutes
	system time =       0.22 seconds =       0.00 minutes
	total time  =          1 seconds =       0.02 minutes

*** tstart() called on sophon
*** at Fri Jul 22 11:11:27 2022


         ------------------------------------------------------------
                                   SCF GRAD                          
                          Rob Parrish, Justin Turney,                
                       Andy Simmonett, and Alex Sokolov              
         ------------------------------------------------------------

  ==> Geometry <==

    Molecular point group: cs
    Full point group: Cs

    Geometry (in Bohr), charge = 0, multiplicity = 1:

       Center              X                  Y                   Z               Mass       
    ------------   -----------------  -----------------  -----------------  -----------------
         C           -0.566778760000    -1.399690200000     0.000000000000    12.000000000000
         N           -0.772863590000     0.849093750000     0.000000000000    14.003074004430
         H            1.339642350000     0.550596450000     0.000000000000     1.007825032230

  Nuclear repulsion =   24.079825775522234

  ==> Basis Set <==

  Basis Set: 6-31G
    Blend: 6-31G
    Number of shells: 12
    Number of basis functions: 20
    Number of Cartesian functions: 20
    Spherical Harmonics?: false
    Max angular momentum: 1

  ==> DFJKGrad: Density-Fitted SCF Gradients <==

    Gradient:                    1
    J tasked:                  Yes
    K tasked:                  Yes
    wK tasked:                  No
    OpenMP threads:              6
    Integrals threads:           6
    Memory [MiB]:            18146
    Schwarz Cutoff:          1E-12
    Fitting Condition:       1E-10

   => Auxiliary Basis Set <=

  Basis Set: (6-31G AUX)
    Blend: CC-PVDZ-JKFIT
    Number of shells: 57
    Number of basis functions: 187
    Number of Cartesian functions: 187
    Spherical Harmonics?: false
    Max angular momentum: 3


  -Total Gradient:
     Atom            X                  Y                   Z
    ------   -----------------  -----------------  -----------------
       1        0.022540228797     0.019703987320     0.000000000000
       2       -0.033531753771     0.007765623337     0.000000000000
       3        0.010991524975    -0.027469610658     0.000000000000


*** tstop() called on sophon at Fri Jul 22 11:11:27 2022
Module time:
	user time   =       0.24 seconds =       0.00 minutes
	system time =       0.02 seconds =       0.00 minutes
	total time  =          0 seconds =       0.00 minutes
Total time:
	user time   =       2.75 seconds =       0.05 minutes
	system time =       0.24 seconds =       0.00 minutes
	total time  =          1 seconds =       0.02 minutes

    Psi4 stopped on: Friday, 22 July 2022 11:11AM
    Psi4 wall time for execution: 0:00:00.62

*** Psi4 exiting successfully. Buy a developer a beer!


    -----------------------------------------------------------------------
          Psi4: An Open-Source Ab Initio Electronic Structure Package
                               Psi4 1.6 release

                         Git: Rev {HEAD} 77475b5 


    D. G. A. Smith, L. A. Burns, A. C. Simmonett, R. M. Parrish,
    M. C. Schieber, R. Galvelis, P. Kraus, H. Kruse, R. Di Remigio,
    A. Alenaizan, A. M. James, S. Lehtola, J. P. Misiewicz, M. Scheurer,
    R. A. Shaw, J. B. Schriber, Y. Xie, Z. L. Glick, D. A. Sirianni,
    J. S. O'Brien, J. M. Waldrop, A. Kumar, E. G. Hohenstein,
    B. P. Pritchard, B. R. Brooks, H. F. Schaefer III, A. Yu. Sokolov,
    K. Patkowski, A. E. DePrince III, U. Bozkaya, R. A. King,
    F. A. Evangelista, J. M. Turney, T. D. Crawford, C. D. Sherrill,
    J. Chem. Phys. 152(18) 184108 (2020). https://doi.org/10.1063/5.0006002

                            Additional Code Authors
    E. T. Seidl, C. L. Janssen, E. F. Valeev, M. L. Leininger,
    J. F. Gonthier, R. M. Richard, H. R. McAlexander, M. Saitow, X. Wang,
    P. Verma, M. H. Lechner, and A. Jiang

             Previous Authors, Complete List of Code Contributors,
                       and Citations for Specific Modules
    https://github.com/psi4/psi4/blob/master/codemeta.json
    https://github.com/psi4/psi4/graphs/contributors
    http://psicode.org/psi4manual/master/introduction.html#citing-psifour

    -----------------------------------------------------------------------


    Psi4 started on: Friday, 22 July 2022 11:11AM

    Process ID: 3189376
    Host:       sophon
    PSIDATADIR: /home/heepark/miniconda3/envs/qcfractal_2/share/psi4
    Memory:     23.6 GiB
    Threads:    6
    
  ==> Input QCSchema <==

--------------------------------------------------------------------------
{'driver': 'gradient',
 'extras': {},
 'id': None,
 'keywords': {},
 'model': {'basis': '6-31g', 'method': 'hf'},
 'molecule': {'fix_com': True,
              'fix_orientation': True,
              'geometry': [-0.21064988, -1.20508398, 0.0, -1.20434791, 0.80604882, 0.0, 1.4149978, 0.39903515, 0.0],
              'id': 25,
              'identifiers': {'molecular_formula': 'CHN', 'molecule_hash': '0d1c675c6cda5b8d8ce0071879d08deadee8bf2e'},
              'molecular_charge': 0.0,
              'molecular_multiplicity': 1,
              'name': 'CHN',
              'provenance': {'creator': 'QCElemental',
                             'routine': 'qcelemental.molparse.from_schema',
                             'version': 'v0.24.0'},
              'schema_name': 'qcschema_molecule',
              'schema_version': 2,
              'symbols': ['C', 'N', 'H'],
              'validated': True},
 'protocols': {},
 'provenance': {'creator': 'QCElemental', 'routine': 'qcelemental.models.results', 'version': 'v0.24.0'},
 'schema_name': 'qcschema_input',
 'schema_version': 1}
--------------------------------------------------------------------------

Scratch directory: /tmp/tmp90syb8bh_psi_scratch/
gradient() will perform analytic gradient computation.

*** tstart() called on sophon
*** at Fri Jul 22 11:11:27 2022

   => Loading Basis Set <=

    Name: 6-31G
    Role: ORBITAL
    Keyword: BASIS
    atoms 1 entry C          line    87 file /home/heepark/miniconda3/envs/qcfractal_2/share/psi4/basis/6-31g.gbs 
    atoms 2 entry N          line   102 file /home/heepark/miniconda3/envs/qcfractal_2/share/psi4/basis/6-31g.gbs 
    atoms 3 entry H          line    26 file /home/heepark/miniconda3/envs/qcfractal_2/share/psi4/basis/6-31g.gbs 


         ---------------------------------------------------------
                                   SCF
               by Justin Turney, Rob Parrish, Andy Simmonett
                          and Daniel G. A. Smith
                              RHF Reference
                        6 Threads,  24195 MiB Core
         ---------------------------------------------------------

  ==> Geometry <==

    Molecular point group: cs
    Full point group: Cs

    Geometry (in Bohr), charge = 0, multiplicity = 1:

       Center              X                  Y                   Z               Mass       
    ------------   -----------------  -----------------  -----------------  -----------------
         C           -0.210649880000    -1.205083980000     0.000000000000    12.000000000000
         N           -1.204347910000     0.806048820000     0.000000000000    14.003074004430
         H            1.414997800000     0.399035150000     0.000000000000     1.007825032230

  Running in cs symmetry.

  Rotational constants: A =      4.11953  B =      1.72328  C =      1.21502 [cm^-1]
  Rotational constants: A = 123500.31457  B =  51662.73271  C =  36425.28399 [MHz]
  Nuclear repulsion =   23.990869388685585

  Charge       = 0
  Multiplicity = 1
  Electrons    = 14
  Nalpha       = 7
  Nbeta        = 7

  ==> Algorithm <==

  SCF Algorithm Type is DF.
  DIIS enabled.
  MOM disabled.
  Fractional occupation disabled.
  Guess Type is SAD.
  Energy threshold   = 1.00e-08
  Density threshold  = 1.00e-08
  Integral threshold = 1.00e-12

  ==> Primary Basis <==

  Basis Set: 6-31G
    Blend: 6-31G
    Number of shells: 12
    Number of basis functions: 20
    Number of Cartesian functions: 20
    Spherical Harmonics?: false
    Max angular momentum: 1

   => Loading Basis Set <=

    Name: (6-31G AUX)
    Role: JKFIT
    Keyword: DF_BASIS_SCF
    atoms 1 entry C          line   121 file /home/heepark/miniconda3/envs/qcfractal_2/share/psi4/basis/cc-pvdz-jkfit.gbs 
    atoms 2 entry N          line   171 file /home/heepark/miniconda3/envs/qcfractal_2/share/psi4/basis/cc-pvdz-jkfit.gbs 
    atoms 3 entry H          line    51 file /home/heepark/miniconda3/envs/qcfractal_2/share/psi4/basis/cc-pvdz-jkfit.gbs 

  ==> Integral Setup <==

  DFHelper Memory: AOs need 0.001 GiB; user supplied 17.721 GiB. Using in-core AOs.

  ==> MemDFJK: Density-Fitted J/K Matrices <==

    J tasked:                   Yes
    K tasked:                   Yes
    wK tasked:                   No
    OpenMP threads:               6
    Memory [MiB]:             18146
    Algorithm:                 Core
    Schwarz Cutoff:           1E-12
    Mask sparsity (%):       0.0000
    Fitting Condition:        1E-10

   => Auxiliary Basis Set <=

  Basis Set: (6-31G AUX)
    Blend: CC-PVDZ-JKFIT
    Number of shells: 57
    Number of basis functions: 187
    Number of Cartesian functions: 187
    Spherical Harmonics?: false
    Max angular momentum: 3

  Minimum eigenvalue in the overlap matrix is 9.9631981063E-03.
  Reciprocal condition number of the overlap matrix is 2.5155891542E-03.
    Using symmetric orthogonalization.

  ==> Pre-Iterations <==

  SCF Guess: Superposition of Atomic Densities via on-the-fly atomic UHF (no occupation information).

   -------------------------
    Irrep   Nso     Nmo    
   -------------------------
     A'        16      16 
     A"         4       4 
   -------------------------
    Total      20      20
   -------------------------

  ==> Iterations <==

                           Total Energy        Delta E     RMS |[F,P]|

   @DF-RHF iter SAD:   -92.03127317676514   -9.20313e+01   0.00000e+00 
   @DF-RHF iter   1:   -92.68619632104348   -6.54923e-01   1.33382e-02 DIIS/ADIIS
   @DF-RHF iter   2:   -92.70914094167780   -2.29446e-02   1.04506e-02 DIIS/ADIIS
   @DF-RHF iter   3:   -92.72139116274433   -1.22502e-02   2.42122e-03 DIIS/ADIIS
   @DF-RHF iter   4:   -92.72302519211813   -1.63403e-03   8.87904e-04 DIIS/ADIIS
   @DF-RHF iter   5:   -92.72346848583018   -4.43294e-04   3.72347e-04 DIIS/ADIIS
   @DF-RHF iter   6:   -92.72359555418528   -1.27068e-04   1.21768e-04 DIIS/ADIIS
   @DF-RHF iter   7:   -92.72360588232071   -1.03281e-05   3.33347e-05 DIIS
   @DF-RHF iter   8:   -92.72360638973456   -5.07414e-07   4.60383e-06 DIIS
   @DF-RHF iter   9:   -92.72360639943213   -9.69757e-09   1.27172e-06 DIIS
   @DF-RHF iter  10:   -92.72360640038556   -9.53435e-10   3.77836e-07 DIIS
   @DF-RHF iter  11:   -92.72360640048096   -9.53975e-11   5.06834e-08 DIIS
   @DF-RHF iter  12:   -92.72360640048223   -1.26477e-12   1.33553e-08 DIIS
   @DF-RHF iter  13:   -92.72360640048247   -2.41585e-13   2.34786e-09 DIIS
  Energy and wave function converged.


  ==> Post-Iterations <==

    Orbital Energies [Eh]
    ---------------------

    Doubly Occupied:                                                      

       1Ap   -15.675430     2Ap   -11.324737     3Ap    -1.348465  
       4Ap    -0.701275     5Ap    -0.629665     1App   -0.536322  
       6Ap    -0.490452  

    Virtual:                                                              

       7Ap     0.105106     2App    0.166289     8Ap     0.206826  
       9Ap     0.463864     3App    0.750627    10Ap     0.752609  
      11Ap     0.783127    12Ap     0.899806    13Ap     0.964039  
       4App    0.989345    14Ap     1.049603    15Ap     1.133754  
      16Ap     1.529644  

    Final Occupation by Irrep:
             Ap   App 
    DOCC [     6,    1 ]

  @DF-RHF Final Energy:   -92.72360640048247

   => Energetics <=

    Nuclear Repulsion Energy =             23.9908693886855851
    One-Electron Energy =                -172.0162590960081843
    Two-Electron Energy =                  55.3017833068401359
    Total Energy =                        -92.7236064004824669

Computation Completed


Properties will be evaluated at   0.000000,   0.000000,   0.000000 [a0]

Properties computed using the SCF density matrix


 Multipole Moments:

 ------------------------------------------------------------------------------------
     Multipole            Electronic (a.u.)      Nuclear  (a.u.)        Total (a.u.)
 ------------------------------------------------------------------------------------

 L = 1.  Multiply by 2.5417464519 to convert [e a0] to [Debye]
 Dipole X            :          8.8543774           -8.2793369            0.5750405
 Dipole Y            :          1.3461924           -1.1891270            0.1570654
 Dipole Z            :          0.0000000            0.0000000            0.0000000
 Magnitude           :                                                    0.5961050

 ------------------------------------------------------------------------------------

*** tstop() called on sophon at Fri Jul 22 11:11:28 2022
Module time:
	user time   =       2.81 seconds =       0.05 minutes
	system time =       0.17 seconds =       0.00 minutes
	total time  =          1 seconds =       0.02 minutes
Total time:
	user time   =       2.81 seconds =       0.05 minutes
	system time =       0.17 seconds =       0.00 minutes
	total time  =          1 seconds =       0.02 minutes

*** tstart() called on sophon
*** at Fri Jul 22 11:11:28 2022


         ------------------------------------------------------------
                                   SCF GRAD                          
                          Rob Parrish, Justin Turney,                
                       Andy Simmonett, and Alex Sokolov              
         ------------------------------------------------------------

  ==> Geometry <==

    Molecular point group: cs
    Full point group: Cs

    Geometry (in Bohr), charge = 0, multiplicity = 1:

       Center              X                  Y                   Z               Mass       
    ------------   -----------------  -----------------  -----------------  -----------------
         C           -0.210649880000    -1.205083980000     0.000000000000    12.000000000000
         N           -1.204347910000     0.806048820000     0.000000000000    14.003074004430
         H            1.414997800000     0.399035150000     0.000000000000     1.007825032230

  Nuclear repulsion =   23.990869388685585

  ==> Basis Set <==

  Basis Set: 6-31G
    Blend: 6-31G
    Number of shells: 12
    Number of basis functions: 20
    Number of Cartesian functions: 20
    Spherical Harmonics?: false
    Max angular momentum: 1

  ==> DFJKGrad: Density-Fitted SCF Gradients <==

    Gradient:                    1
    J tasked:                  Yes
    K tasked:                  Yes
    wK tasked:                  No
    OpenMP threads:              6
    Integrals threads:           6
    Memory [MiB]:            18146
    Schwarz Cutoff:          1E-12
    Fitting Condition:       1E-10

   => Auxiliary Basis Set <=

  Basis Set: (6-31G AUX)
    Blend: CC-PVDZ-JKFIT
    Number of shells: 57
    Number of basis functions: 187
    Number of Cartesian functions: 187
    Spherical Harmonics?: false
    Max angular momentum: 3


  -Total Gradient:
     Atom            X                  Y                   Z
    ------   -----------------  -----------------  -----------------
       1       -0.000486692358    -0.000227086127     0.000000000000
       2        0.000376230311    -0.000215580781     0.000000000000
       3        0.000110462048     0.000442666908     0.000000000000


*** tstop() called on sophon at Fri Jul 22 11:11:28 2022
Module time:
	user time   =       0.17 seconds =       0.00 minutes
	system time =       0.02 seconds =       0.00 minutes
	total time  =          0 seconds =       0.00 minutes
Total time:
	user time   =       2.99 seconds =       0.05 minutes
	system time =       0.19 seconds =       0.00 minutes
	total time  =          1 seconds =       0.02 minutes

    Psi4 stopped on: Friday, 22 July 2022 11:11AM
    Psi4 wall time for execution: 0:00:00.75

*** Psi4 exiting successfully. Buy a developer a beer!


    -----------------------------------------------------------------------
          Psi4: An Open-Source Ab Initio Electronic Structure Package
                               Psi4 1.6 release

                         Git: Rev {HEAD} 77475b5 


    D. G. A. Smith, L. A. Burns, A. C. Simmonett, R. M. Parrish,
    M. C. Schieber, R. Galvelis, P. Kraus, H. Kruse, R. Di Remigio,
    A. Alenaizan, A. M. James, S. Lehtola, J. P. Misiewicz, M. Scheurer,
    R. A. Shaw, J. B. Schriber, Y. Xie, Z. L. Glick, D. A. Sirianni,
    J. S. O'Brien, J. M. Waldrop, A. Kumar, E. G. Hohenstein,
    B. P. Pritchard, B. R. Brooks, H. F. Schaefer III, A. Yu. Sokolov,
    K. Patkowski, A. E. DePrince III, U. Bozkaya, R. A. King,
    F. A. Evangelista, J. M. Turney, T. D. Crawford, C. D. Sherrill,
    J. Chem. Phys. 152(18) 184108 (2020). https://doi.org/10.1063/5.0006002

                            Additional Code Authors
    E. T. Seidl, C. L. Janssen, E. F. Valeev, M. L. Leininger,
    J. F. Gonthier, R. M. Richard, H. R. McAlexander, M. Saitow, X. Wang,
    P. Verma, M. H. Lechner, and A. Jiang

             Previous Authors, Complete List of Code Contributors,
                       and Citations for Specific Modules
    https://github.com/psi4/psi4/blob/master/codemeta.json
    https://github.com/psi4/psi4/graphs/contributors
    http://psicode.org/psi4manual/master/introduction.html#citing-psifour

    -----------------------------------------------------------------------


    Psi4 started on: Friday, 22 July 2022 11:11AM

    Process ID: 3189342
    Host:       sophon
    PSIDATADIR: /home/heepark/miniconda3/envs/qcfractal_2/share/psi4
    Memory:     23.6 GiB
    Threads:    6
    
  ==> Input QCSchema <==

--------------------------------------------------------------------------
{'driver': 'gradient',
 'extras': {},
 'id': None,
 'keywords': {},
 'model': {'basis': '6-31g', 'method': 'hf'},
 'molecule': {'fix_com': True,
              'fix_orientation': True,
              'geometry': [0.1588113, -0.81540811, 0.0, -1.76806366, 0.22262306, 0.0, 1.60925236, 0.59278506, 0.0],
              'id': 27,
              'identifiers': {'molecular_formula': 'CHN', 'molecule_hash': '216f6d437dd3f264b10277d2305230b7e589520c'},
              'molecular_charge': 0.0,
              'molecular_multiplicity': 1,
              'name': 'CHN',
              'provenance': {'creator': 'QCElemental',
                             'routine': 'qcelemental.molparse.from_schema',
                             'version': 'v0.24.0'},
              'schema_name': 'qcschema_molecule',
              'schema_version': 2,
              'symbols': ['C', 'N', 'H'],
              'validated': True},
 'protocols': {},
 'provenance': {'creator': 'QCElemental', 'routine': 'qcelemental.models.results', 'version': 'v0.24.0'},
 'schema_name': 'qcschema_input',
 'schema_version': 1}
--------------------------------------------------------------------------

Scratch directory: /tmp/tmp3i97gjy3_psi_scratch/
gradient() will perform analytic gradient computation.

*** tstart() called on sophon
*** at Fri Jul 22 11:11:25 2022

   => Loading Basis Set <=

    Name: 6-31G
    Role: ORBITAL
    Keyword: BASIS
    atoms 1 entry C          line    87 file /home/heepark/miniconda3/envs/qcfractal_2/share/psi4/basis/6-31g.gbs 
    atoms 2 entry N          line   102 file /home/heepark/miniconda3/envs/qcfractal_2/share/psi4/basis/6-31g.gbs 
    atoms 3 entry H          line    26 file /home/heepark/miniconda3/envs/qcfractal_2/share/psi4/basis/6-31g.gbs 


         ---------------------------------------------------------
                                   SCF
               by Justin Turney, Rob Parrish, Andy Simmonett
                          and Daniel G. A. Smith
                              RHF Reference
                        6 Threads,  24195 MiB Core
         ---------------------------------------------------------

  ==> Geometry <==

    Molecular point group: cs
    Full point group: Cs

    Geometry (in Bohr), charge = 0, multiplicity = 1:

       Center              X                  Y                   Z               Mass       
    ------------   -----------------  -----------------  -----------------  -----------------
         C            0.158811300000    -0.815408110000     0.000000000000    12.000000000000
         N           -1.768063660000     0.222623060000     0.000000000000    14.003074004430
         H            1.609252360000     0.592785060000     0.000000000000     1.007825032230

  Running in cs symmetry.

  Rotational constants: A =      7.46700  B =      1.26333  C =      1.08052 [cm^-1]
  Rotational constants: A = 223854.99644  B =  37873.64083  C =  32393.10693 [MHz]
  Nuclear repulsion =   24.217865813242998

  Charge       = 0
  Multiplicity = 1
  Electrons    = 14
  Nalpha       = 7
  Nbeta        = 7

  ==> Algorithm <==

  SCF Algorithm Type is DF.
  DIIS enabled.
  MOM disabled.
  Fractional occupation disabled.
  Guess Type is SAD.
  Energy threshold   = 1.00e-08
  Density threshold  = 1.00e-08
  Integral threshold = 1.00e-12

  ==> Primary Basis <==

  Basis Set: 6-31G
    Blend: 6-31G
    Number of shells: 12
    Number of basis functions: 20
    Number of Cartesian functions: 20
    Spherical Harmonics?: false
    Max angular momentum: 1

   => Loading Basis Set <=

    Name: (6-31G AUX)
    Role: JKFIT
    Keyword: DF_BASIS_SCF
    atoms 1 entry C          line   121 file /home/heepark/miniconda3/envs/qcfractal_2/share/psi4/basis/cc-pvdz-jkfit.gbs 
    atoms 2 entry N          line   171 file /home/heepark/miniconda3/envs/qcfractal_2/share/psi4/basis/cc-pvdz-jkfit.gbs 
    atoms 3 entry H          line    51 file /home/heepark/miniconda3/envs/qcfractal_2/share/psi4/basis/cc-pvdz-jkfit.gbs 

  ==> Integral Setup <==

  DFHelper Memory: AOs need 0.001 GiB; user supplied 17.721 GiB. Using in-core AOs.

  ==> MemDFJK: Density-Fitted J/K Matrices <==

    J tasked:                   Yes
    K tasked:                   Yes
    wK tasked:                   No
    OpenMP threads:               6
    Memory [MiB]:             18146
    Algorithm:                 Core
    Schwarz Cutoff:           1E-12
    Mask sparsity (%):       0.0000
    Fitting Condition:        1E-10

   => Auxiliary Basis Set <=

  Basis Set: (6-31G AUX)
    Blend: CC-PVDZ-JKFIT
    Number of shells: 57
    Number of basis functions: 187
    Number of Cartesian functions: 187
    Spherical Harmonics?: false
    Max angular momentum: 3

  Minimum eigenvalue in the overlap matrix is 8.7206299539E-03.
  Reciprocal condition number of the overlap matrix is 2.2992650771E-03.
    Using symmetric orthogonalization.

  ==> Pre-Iterations <==

  SCF Guess: Superposition of Atomic Densities via on-the-fly atomic UHF (no occupation information).

   -------------------------
    Irrep   Nso     Nmo    
   -------------------------
     A'        16      16 
     A"         4       4 
   -------------------------
    Total      20      20
   -------------------------

  ==> Iterations <==

                           Total Energy        Delta E     RMS |[F,P]|

   @DF-RHF iter SAD:   -92.01670635195939   -9.20167e+01   0.00000e+00 
   @DF-RHF iter   1:   -92.70731877670588   -6.90612e-01   1.82096e-02 ADIIS/DIIS
   @DF-RHF iter   2:   -92.71570281162110   -8.38403e-03   1.98063e-02 ADIIS/DIIS
   @DF-RHF iter   3:   -92.75987029783310   -4.41675e-02   1.68541e-03 ADIIS/DIIS
   @DF-RHF iter   4:   -92.76116739888226   -1.29710e-03   9.39253e-04 ADIIS/DIIS
   @DF-RHF iter   5:   -92.76161779265982   -4.50394e-04   4.54566e-04 ADIIS/DIIS
   @DF-RHF iter   6:   -92.76184588667638   -2.28094e-04   1.59653e-04 ADIIS/DIIS
   @DF-RHF iter   7:   -92.76187096175890   -2.50751e-05   2.68434e-05 DIIS
   @DF-RHF iter   8:   -92.76187142119277   -4.59434e-07   5.68994e-06 DIIS
   @DF-RHF iter   9:   -92.76187143872794   -1.75352e-08   2.34385e-06 DIIS
   @DF-RHF iter  10:   -92.76187144233646   -3.60852e-09   4.23054e-07 DIIS
   @DF-RHF iter  11:   -92.76187144243531   -9.88507e-11   5.22783e-08 DIIS
   @DF-RHF iter  12:   -92.76187144243617   -8.66862e-13   5.60390e-09 DIIS
  Energy and wave function converged.


  ==> Post-Iterations <==

    Orbital Energies [Eh]
    ---------------------

    Doubly Occupied:                                                      

       1Ap   -15.650724     2Ap   -11.301329     3Ap    -1.302068  
       4Ap    -0.769076     5Ap    -0.595143     1App   -0.517520  
       6Ap    -0.487369  

    Virtual:                                                              

       7Ap     0.080691     2App    0.180027     8Ap     0.281987  
       9Ap     0.428134     3App    0.749509    10Ap     0.762852  
      11Ap     0.819574    12Ap     0.925396    13Ap     1.014221  
       4App    1.014888    14Ap     1.125874    15Ap     1.231176  
      16Ap     1.584248  

    Final Occupation by Irrep:
             Ap   App 
    DOCC [     6,    1 ]

  @DF-RHF Final Energy:   -92.76187144243617

   => Energetics <=

    Nuclear Repulsion Energy =             24.2178658132429980
    One-Electron Energy =                -172.7130151345268416
    Two-Electron Energy =                  55.7332778788476659
    Total Energy =                        -92.7618714424361599

Computation Completed


Properties will be evaluated at   0.000000,   0.000000,   0.000000 [a0]

Properties computed using the SCF density matrix


 Multipole Moments:

 ------------------------------------------------------------------------------------
     Multipole            Electronic (a.u.)      Nuclear  (a.u.)        Total (a.u.)
 ------------------------------------------------------------------------------------

 L = 1.  Multiply by 2.5417464519 to convert [e a0] to [Debye]
 Dipole X            :         10.6716296           -9.8143255            0.8573041
 Dipole Y            :          2.9962447           -2.7413022            0.2549425
 Dipole Z            :          0.0000000            0.0000000            0.0000000
 Magnitude           :                                                    0.8944082

 ------------------------------------------------------------------------------------

*** tstop() called on sophon at Fri Jul 22 11:11:25 2022
Module time:
	user time   =       2.12 seconds =       0.04 minutes
	system time =       0.21 seconds =       0.00 minutes
	total time  =          0 seconds =       0.00 minutes
Total time:
	user time   =       2.12 seconds =       0.04 minutes
	system time =       0.21 seconds =       0.00 minutes
	total time  =          0 seconds =       0.00 minutes

*** tstart() called on sophon
*** at Fri Jul 22 11:11:25 2022


         ------------------------------------------------------------
                                   SCF GRAD                          
                          Rob Parrish, Justin Turney,                
                       Andy Simmonett, and Alex Sokolov              
         ------------------------------------------------------------

  ==> Geometry <==

    Molecular point group: cs
    Full point group: Cs

    Geometry (in Bohr), charge = 0, multiplicity = 1:

       Center              X                  Y                   Z               Mass       
    ------------   -----------------  -----------------  -----------------  -----------------
         C            0.158811300000    -0.815408110000     0.000000000000    12.000000000000
         N           -1.768063660000     0.222623060000     0.000000000000    14.003074004430
         H            1.609252360000     0.592785060000     0.000000000000     1.007825032230

  Nuclear repulsion =   24.217865813242998

  ==> Basis Set <==

  Basis Set: 6-31G
    Blend: 6-31G
    Number of shells: 12
    Number of basis functions: 20
    Number of Cartesian functions: 20
    Spherical Harmonics?: false
    Max angular momentum: 1

  ==> DFJKGrad: Density-Fitted SCF Gradients <==

    Gradient:                    1
    J tasked:                  Yes
    K tasked:                  Yes
    wK tasked:                  No
    OpenMP threads:              6
    Integrals threads:           6
    Memory [MiB]:            18146
[...]
  Reciprocal condition number of the overlap matrix is 1.3671594395E-03.
    Using symmetric orthogonalization.

  ==> Pre-Iterations <==

  SCF Guess: Superposition of Atomic Densities via on-the-fly atomic UHF (no occupation information).

   -------------------------
    Irrep   Nso     Nmo    
   -------------------------
     A'        16      16 
     A"         4       4 
   -------------------------
    Total      20      20
   -------------------------

  ==> Iterations <==

                           Total Energy        Delta E     RMS |[F,P]|

   @DF-RHF iter SAD:   -91.99634894582012   -9.19963e+01   0.00000e+00 
   @DF-RHF iter   1:   -92.77192371707619   -7.75575e-01   2.02036e-02 ADIIS/DIIS
   @DF-RHF iter   2:   -92.78165447629931   -9.73076e-03   2.01676e-02 ADIIS/DIIS
   @DF-RHF iter   3:   -92.82796158312300   -4.63071e-02   9.35926e-04 ADIIS/DIIS
   @DF-RHF iter   4:   -92.82819173392907   -2.30151e-04   3.31962e-04 ADIIS/DIIS
   @DF-RHF iter   5:   -92.82821391578629   -2.21819e-05   8.57638e-05 DIIS
   @DF-RHF iter   6:   -92.82821579217463   -1.87639e-06   1.28448e-05 DIIS
   @DF-RHF iter   7:   -92.82821581810791   -2.59333e-08   1.83783e-06 DIIS
   @DF-RHF iter   8:   -92.82821581870014   -5.92237e-10   1.75034e-07 DIIS
   @DF-RHF iter   9:   -92.82821581870817   -8.02913e-12   1.39096e-08 DIIS
   @DF-RHF iter  10:   -92.82821581870826   -8.52651e-14   1.66614e-09 DIIS
  Energy and wave function converged.


  ==> Post-Iterations <==

    Orbital Energies [Eh]
    ---------------------

    Doubly Occupied:                                                      

       1Ap   -15.621852     2Ap   -11.302357     3Ap    -1.270856  
       4Ap    -0.809632     5Ap    -0.574111     1App   -0.501269  
       6Ap    -0.501269  

    Virtual:                                                              

       7Ap     0.190267     2App    0.190267     8Ap     0.232069  
       9Ap     0.423566     3App    0.742009    10Ap     0.742009  
      11Ap     0.854288    12Ap     0.927943     4App    1.039726  
      13Ap     1.039726    14Ap     1.083509    15Ap     1.478518  
      16Ap     1.811618  

    Final Occupation by Irrep:
             Ap   App 
    DOCC [     6,    1 ]

  @DF-RHF Final Energy:   -92.82821581870826

   => Energetics <=

    Nuclear Repulsion Energy =             24.1268215957565637
    One-Electron Energy =                -172.7473827707145517
    Two-Electron Energy =                  55.7923453562497400
    Total Energy =                        -92.8282158187082587

Computation Completed


Properties will be evaluated at   0.000000,   0.000000,   0.000000 [a0]

Properties computed using the SCF density matrix


 Multipole Moments:

 ------------------------------------------------------------------------------------
     Multipole            Electronic (a.u.)      Nuclear  (a.u.)        Total (a.u.)
 ------------------------------------------------------------------------------------

 L = 1.  Multiply by 2.5417464519 to convert [e a0] to [Debye]
 Dipole X            :          9.1593956           -8.3014206            0.8579750
 Dipole Y            :         10.0738063           -9.1301975            0.9436089
 Dipole Z            :          0.0000000            0.0000000            0.0000000
 Magnitude           :                                                    1.2753504

 ------------------------------------------------------------------------------------

*** tstop() called on sophon at Fri Jul 22 11:11:28 2022
Module time:
	user time   =       2.42 seconds =       0.04 minutes
	system time =       0.14 seconds =       0.00 minutes
	total time  =          1 seconds =       0.02 minutes
Total time:
	user time   =       2.42 seconds =       0.04 minutes
	system time =       0.14 seconds =       0.00 minutes
	total time  =          1 seconds =       0.02 minutes

*** tstart() called on sophon
*** at Fri Jul 22 11:11:28 2022


         ------------------------------------------------------------
                                   SCF GRAD                          
                          Rob Parrish, Justin Turney,                
                       Andy Simmonett, and Alex Sokolov              
         ------------------------------------------------------------

  ==> Geometry <==

    Molecular point group: cs
    Full point group: C1v

    Geometry (in Bohr), charge = 0, multiplicity = 1:

       Center              X                  Y                   Z               Mass       
    ------------   -----------------  -----------------  -----------------  -----------------
         C            0.038790650000     0.042515030000     0.000000000000    12.000000000000
         N           -1.415895640000    -1.557128770000     0.000000000000    14.003074004430
         H            1.377104990000     1.514613750000     0.000000000000     1.007825032230

  Nuclear repulsion =   24.126821595756564

  ==> Basis Set <==

  Basis Set: 6-31G
    Blend: 6-31G
    Number of shells: 12
    Number of basis functions: 20
    Number of Cartesian functions: 20
    Spherical Harmonics?: false
    Max angular momentum: 1

  ==> DFJKGrad: Density-Fitted SCF Gradients <==

    Gradient:                    1
    J tasked:                  Yes
    K tasked:                  Yes
    wK tasked:                  No
    OpenMP threads:              6
    Integrals threads:           6
    Memory [MiB]:            18146
    Schwarz Cutoff:          1E-12
    Fitting Condition:       1E-10

   => Auxiliary Basis Set <=

  Basis Set: (6-31G AUX)
    Blend: CC-PVDZ-JKFIT
    Number of shells: 57
    Number of basis functions: 187
    Number of Cartesian functions: 187
    Spherical Harmonics?: false
    Max angular momentum: 3


  -Total Gradient:
     Atom            X                  Y                   Z
    ------   -----------------  -----------------  -----------------
       1        0.000024001059     0.000008793833     0.000000000000
       2       -0.000083295571    -0.000083172002     0.000000000000
       3        0.000059294512     0.000074378170     0.000000000000


*** tstop() called on sophon at Fri Jul 22 11:11:28 2022
Module time:
	user time   =       0.23 seconds =       0.00 minutes
	system time =       0.01 seconds =       0.00 minutes
	total time  =          0 seconds =       0.00 minutes
Total time:
	user time   =       2.66 seconds =       0.04 minutes
	system time =       0.15 seconds =       0.00 minutes
	total time  =          1 seconds =       0.02 minutes

    Psi4 stopped on: Friday, 22 July 2022 11:11AM
    Psi4 wall time for execution: 0:00:00.53

*** Psi4 exiting successfully. Buy a developer a beer!


    -----------------------------------------------------------------------
          Psi4: An Open-Source Ab Initio Electronic Structure Package
                               Psi4 1.6 release

                         Git: Rev {HEAD} 77475b5 


    D. G. A. Smith, L. A. Burns, A. C. Simmonett, R. M. Parrish,
    M. C. Schieber, R. Galvelis, P. Kraus, H. Kruse, R. Di Remigio,
    A. Alenaizan, A. M. James, S. Lehtola, J. P. Misiewicz, M. Scheurer,
    R. A. Shaw, J. B. Schriber, Y. Xie, Z. L. Glick, D. A. Sirianni,
    J. S. O'Brien, J. M. Waldrop, A. Kumar, E. G. Hohenstein,
    B. P. Pritchard, B. R. Brooks, H. F. Schaefer III, A. Yu. Sokolov,
    K. Patkowski, A. E. DePrince III, U. Bozkaya, R. A. King,
    F. A. Evangelista, J. M. Turney, T. D. Crawford, C. D. Sherrill,
    J. Chem. Phys. 152(18) 184108 (2020). https://doi.org/10.1063/5.0006002

                            Additional Code Authors
    E. T. Seidl, C. L. Janssen, E. F. Valeev, M. L. Leininger,
    J. F. Gonthier, R. M. Richard, H. R. McAlexander, M. Saitow, X. Wang,
    P. Verma, M. H. Lechner, and A. Jiang

             Previous Authors, Complete List of Code Contributors,
                       and Citations for Specific Modules
    https://github.com/psi4/psi4/blob/master/codemeta.json
    https://github.com/psi4/psi4/graphs/contributors
    http://psicode.org/psi4manual/master/introduction.html#citing-psifour

    -----------------------------------------------------------------------


    Psi4 started on: Friday, 22 July 2022 11:11AM

    Process ID: 3189358
    Host:       sophon
    PSIDATADIR: /home/heepark/miniconda3/envs/qcfractal_2/share/psi4
    Memory:     23.6 GiB
    Threads:    6
    
  ==> Input QCSchema <==

--------------------------------------------------------------------------
{'driver': 'gradient',
 'extras': {},
 'id': None,
 'keywords': {},
 'model': {'basis': '6-31g', 'method': 'hf'},
 'molecule': {'fix_com': True,
              'fix_orientation': True,
              'geometry': [0.0387558, 0.04263024, 0.0, -1.41564973, -1.5571944, 0.0, 1.37689393, 1.51456417, 0.0],
              'id': 26,
              'identifiers': {'molecular_formula': 'CHN', 'molecule_hash': 'a69bc732e5ba004d8995d51100b08d4266d54463'},
              'molecular_charge': 0.0,
              'molecular_multiplicity': 1,
              'name': 'CHN',
              'provenance': {'creator': 'QCElemental',
                             'routine': 'qcelemental.molparse.from_schema',
                             'version': 'v0.24.0'},
              'schema_name': 'qcschema_molecule',
              'schema_version': 2,
              'symbols': ['C', 'N', 'H'],
              'validated': True},
 'protocols': {},
 'provenance': {'creator': 'QCElemental', 'routine': 'qcelemental.models.results', 'version': 'v0.24.0'},
 'schema_name': 'qcschema_input',
 'schema_version': 1}
--------------------------------------------------------------------------

Scratch directory: /tmp/tmpmmnwha_u_psi_scratch/
gradient() will perform analytic gradient computation.

*** tstart() called on sophon
*** at Fri Jul 22 11:11:26 2022

   => Loading Basis Set <=

    Name: 6-31G
    Role: ORBITAL
    Keyword: BASIS
    atoms 1 entry C          line    87 file /home/heepark/miniconda3/envs/qcfractal_2/share/psi4/basis/6-31g.gbs 
    atoms 2 entry N          line   102 file /home/heepark/miniconda3/envs/qcfractal_2/share/psi4/basis/6-31g.gbs 
    atoms 3 entry H          line    26 file /home/heepark/miniconda3/envs/qcfractal_2/share/psi4/basis/6-31g.gbs 


         ---------------------------------------------------------
                                   SCF
               by Justin Turney, Rob Parrish, Andy Simmonett
                          and Daniel G. A. Smith
                              RHF Reference
                        6 Threads,  24195 MiB Core
         ---------------------------------------------------------

  ==> Geometry <==

    Molecular point group: cs
    Full point group: C_inf_v

    Geometry (in Bohr), charge = 0, multiplicity = 1:

       Center              X                  Y                   Z               Mass       
    ------------   -----------------  -----------------  -----------------  -----------------
         C            0.038755800000     0.042630240000     0.000000000000    12.000000000000
         N           -1.415649730000    -1.557194400000     0.000000000000    14.003074004430
         H            1.376893930000     1.514564170000     0.000000000000     1.007825032230

  Running in cs symmetry.

  Rotational constants: A = ************  B =      0.90825  C =      0.90825 [cm^-1]
  Rotational constants: A = ************  B =  27228.70436  C =  27228.70436 [MHz]
  Nuclear repulsion =   24.127800998612674

  Charge       = 0
  Multiplicity = 1
  Electrons    = 14
  Nalpha       = 7
  Nbeta        = 7

  ==> Algorithm <==

  SCF Algorithm Type is DF.
  DIIS enabled.
  MOM disabled.
  Fractional occupation disabled.
  Guess Type is SAD.
  Energy threshold   = 1.00e-08
  Density threshold  = 1.00e-08
  Integral threshold = 1.00e-12

  ==> Primary Basis <==

  Basis Set: 6-31G
    Blend: 6-31G
    Number of shells: 12
    Number of basis functions: 20
    Number of Cartesian functions: 20
    Spherical Harmonics?: false
    Max angular momentum: 1

   => Loading Basis Set <=

    Name: (6-31G AUX)
    Role: JKFIT
    Keyword: DF_BASIS_SCF
    atoms 1 entry C          line   121 file /home/heepark/miniconda3/envs/qcfractal_2/share/psi4/basis/cc-pvdz-jkfit.gbs 
    atoms 2 entry N          line   171 file /home/heepark/miniconda3/envs/qcfractal_2/share/psi4/basis/cc-pvdz-jkfit.gbs 
    atoms 3 entry H          line    51 file /home/heepark/miniconda3/envs/qcfractal_2/share/psi4/basis/cc-pvdz-jkfit.gbs 

  ==> Integral Setup <==

  DFHelper Memory: AOs need 0.001 GiB; user supplied 17.721 GiB. Using in-core AOs.

  ==> MemDFJK: Density-Fitted J/K Matrices <==

    J tasked:                   Yes
    K tasked:                   Yes
    wK tasked:                   No
    OpenMP threads:               6
    Memory [MiB]:             18146
    Algorithm:                 Core
    Schwarz Cutoff:           1E-12
    Mask sparsity (%):       0.0000
    Fitting Condition:        1E-10

   => Auxiliary Basis Set <=

  Basis Set: (6-31G AUX)
    Blend: CC-PVDZ-JKFIT
    Number of shells: 57
    Number of basis functions: 187
    Number of Cartesian functions: 187
    Spherical Harmonics?: false
    Max angular momentum: 3

  Minimum eigenvalue in the overlap matrix is 4.8519471713E-03.
  Reciprocal condition number of the overlap matrix is 1.3668774862E-03.
    Using symmetric orthogonalization.

  ==> Pre-Iterations <==

  SCF Guess: Superposition of Atomic Densities via on-the-fly atomic UHF (no occupation information).

   -------------------------
    Irrep   Nso     Nmo    
   -------------------------
     A'        16      16 
     A"         4       4 
   -------------------------
    Total      20      20
   -------------------------

  ==> Iterations <==

                           Total Energy        Delta E     RMS |[F,P]|

   @DF-RHF iter SAD:   -91.99645678246534   -9.19965e+01   0.00000e+00 
   @DF-RHF iter   1:   -92.77193504155343   -7.75478e-01   2.02016e-02 ADIIS/DIIS
   @DF-RHF iter   2:   -92.78167042188954   -9.73538e-03   2.01644e-02 ADIIS/DIIS
   @DF-RHF iter   3:   -92.82796163600040   -4.62912e-02   9.35897e-04 ADIIS/DIIS
   @DF-RHF iter   4:   -92.82819175445300   -2.30118e-04   3.31928e-04 ADIIS/DIIS
   @DF-RHF iter   5:   -92.82821393162133   -2.21772e-05   8.57451e-05 DIIS
   @DF-RHF iter   6:   -92.82821580706789   -1.87545e-06   1.28425e-05 DIIS
   @DF-RHF iter   7:   -92.82821583298998   -2.59221e-08   1.83727e-06 DIIS
   @DF-RHF iter   8:   -92.82821583358167   -5.91683e-10   1.74997e-07 DIIS
   @DF-RHF iter   9:   -92.82821583358984   -8.17124e-12   1.39065e-08 DIIS
   @DF-RHF iter  10:   -92.82821583358975    8.52651e-14   1.66531e-09 DIIS
  Energy and wave function converged.


  ==> Post-Iterations <==

    Orbital Energies [Eh]
    ---------------------

    Doubly Occupied:                                                      

       1Ap   -15.621846     2Ap   -11.302340     3Ap    -1.270872  
       4Ap    -0.809678     5Ap    -0.574114     6Ap    -0.501280  
       1App   -0.501280  

    Virtual:                                                              

       7Ap     0.190277     2App    0.190277     8Ap     0.232113  
       9Ap     0.423550    10Ap     0.742006     3App    0.742006  
      11Ap     0.854284    12Ap     0.927918     4App    1.039731  
      13Ap     1.039731    14Ap     1.083593    15Ap     1.478696  
      16Ap     1.811636  

    Final Occupation by Irrep:
             Ap   App 
    DOCC [     6,    1 ]

  @DF-RHF Final Energy:   -92.82821583358975

   => Energetics <=

    Nuclear Repulsion Energy =             24.1278009986126740
    One-Electron Energy =                -172.7492148635600699
    Two-Electron Energy =                  55.7931980313576261
    Total Energy =                        -92.8282158335897520

Computation Completed


Properties will be evaluated at   0.000000,   0.000000,   0.000000 [a0]

Properties computed using the SCF density matrix


 Multipole Moments:

 ------------------------------------------------------------------------------------
     Multipole            Electronic (a.u.)      Nuclear  (a.u.)        Total (a.u.)
 ------------------------------------------------------------------------------------

 L = 1.  Multiply by 2.5417464519 to convert [e a0] to [Debye]
 Dipole X            :          9.1579646           -8.3001194            0.8578452
 Dipole Y            :         10.0736328           -9.1300152            0.9436176
 Dipole Z            :          0.0000000            0.0000000            0.0000000
 Magnitude           :                                                    1.2752696

 ------------------------------------------------------------------------------------

*** tstop() called on sophon at Fri Jul 22 11:11:27 2022
Module time:
	user time   =       2.20 seconds =       0.04 minutes
	system time =       0.21 seconds =       0.00 minutes
	total time  =          1 seconds =       0.02 minutes
Total time:
	user time   =       2.20 seconds =       0.04 minutes
	system time =       0.21 seconds =       0.00 minutes
	total time  =          1 seconds =       0.02 minutes

*** tstart() called on sophon
*** at Fri Jul 22 11:11:27 2022


         ------------------------------------------------------------
                                   SCF GRAD                          
                          Rob Parrish, Justin Turney,                
                       Andy Simmonett, and Alex Sokolov              
         ------------------------------------------------------------

  ==> Geometry <==

    Molecular point group: cs
    Full point group: C_inf_v

    Geometry (in Bohr), charge = 0, multiplicity = 1:

       Center              X                  Y                   Z               Mass       
    ------------   -----------------  -----------------  -----------------  -----------------
         C            0.038755800000     0.042630240000     0.000000000000    12.000000000000
         N           -1.415649730000    -1.557194400000     0.000000000000    14.003074004430
         H            1.376893930000     1.514564170000     0.000000000000     1.007825032230

  Nuclear repulsion =   24.127800998612674

  ==> Basis Set <==

  Basis Set: 6-31G
    Blend: 6-31G
    Number of shells: 12
    Number of basis functions: 20
    Number of Cartesian functions: 20
    Spherical Harmonics?: false
    Max angular momentum: 1

  ==> DFJKGrad: Density-Fitted SCF Gradients <==

    Gradient:                    1
    J tasked:                  Yes
    K tasked:                  Yes
    wK tasked:                  No
    OpenMP threads:              6
    Integrals threads:           6
    Memory [MiB]:            18146
    Schwarz Cutoff:          1E-12
    Fitting Condition:       1E-10

   => Auxiliary Basis Set <=

  Basis Set: (6-31G AUX)
    Blend: CC-PVDZ-JKFIT
    Number of shells: 57
    Number of basis functions: 187
    Number of Cartesian functions: 187
    Spherical Harmonics?: false
    Max angular momentum: 3


  -Total Gradient:
     Atom            X                  Y                   Z
    ------   -----------------  -----------------  -----------------
       1        0.000036894964     0.000040512768     0.000000000000
       2       -0.000027059468    -0.000029730983     0.000000000000
       3       -0.000009835495    -0.000010781785     0.000000000000


*** tstop() called on sophon at Fri Jul 22 11:11:27 2022
Module time:
	user time   =       0.29 seconds =       0.00 minutes
	system time =       0.03 seconds =       0.00 minutes
	total time  =          0 seconds =       0.00 minutes
Total time:
	user time   =       2.50 seconds =       0.04 minutes
	system time =       0.24 seconds =       0.00 minutes
	total time  =          1 seconds =       0.02 minutes

    Psi4 stopped on: Friday, 22 July 2022 11:11AM
    Psi4 wall time for execution: 0:00:00.68

*** Psi4 exiting successfully. Buy a developer a beer!

