3    
Image 0/21, Energy =   -93.4051520129 (+14.706 kcal/mol)
C       -0.7519862184   -0.8272338399    0.0000000000
N        0.0394753354    0.0434721365    0.0000000000
H        0.7125108830    0.7837617034    0.0000000000
3    
Image 1/21, Energy =   -93.4031473644 (+15.964 kcal/mol)
C       -0.6525421491   -0.8861638189    0.0000000000
N       -0.0714941982    0.1381576348    0.0000000000
H        0.7240131197    0.7480386084   -0.0000000000
3    
Image 2/21, Energy =   -93.4000820201 (+17.887 kcal/mol)
C       -0.5259803707   -0.9405699092   -0.0000000000
N       -0.1477843990    0.1807324081    0.0000000000
H        0.6737204597    0.7598800575    0.0000000000
3    
Image 3/21, Energy =   -93.3936215581 (+21.941 kcal/mol)
C       -0.3775263354   -0.9574964519   -0.0000000000
N       -0.2461556224    0.2252001133    0.0000000000
H        0.6236320065    0.7323359866   -0.0000000000
3    
Image 4/21, Energy =   -93.3784439112 (+31.466 kcal/mol)
C       -0.2249030505   -0.8917805706   -0.0000000000
N       -0.3825506209    0.2975002917    0.0000000000
H        0.6074158412    0.5943140795   -0.0000000000
3    
Image 5/21, Energy =   -93.3625822863 (+41.419 kcal/mol)
C       -0.1070961403   -0.7796486600    0.0000000000
N       -0.5059601201    0.3536708700    0.0000000000
H        0.6130348876    0.4260239860   -0.0000000000
3    
Image 6/21, Energy =   -93.3553457611 (+45.960 kcal/mol)
C       -0.0585015553   -0.7189136024    0.0000000000
N       -0.5798486495    0.3584811520    0.0000000000
H        0.6383083054    0.3604783416   -0.0000000000
3    
Image 7/21, Energy =   -93.3505915495 (+48.943 kcal/mol)
C       -0.0293851273   -0.6541323073    0.0000000000
N       -0.6656146290    0.3480550017    0.0000000000
H        0.6949474424    0.3061271273   -0.0000000000
3    
Image 8/21, Energy =   -93.3743596041 (+34.028 kcal/mol)
C        0.0123368983   -0.4740222384    0.0000000000
N       -0.8857003195    0.2831353084    0.0000000000
H        0.8733432007    0.1909420269   -0.0000000000
3    
Image 9/21, Energy =   -93.4065018678 (+13.859 kcal/mol)
C        0.0191496229   -0.3014504780    0.0000000000
N       -1.0223468027    0.2101213770    0.0000000000
H        1.0031820076    0.0914174713   -0.0000000000
3    
Image 10/21, Energy =   -93.4254617490 (+1.961 kcal/mol)
C        0.0213216191   -0.1165280414   -0.0000000000
N       -1.1039600525    0.1466725728    0.0000000000
H        1.0826291825   -0.0300755810   -0.0000000000
3    
Image 11/21, Energy =   -93.4285254324 (+0.039 kcal/mol)
C        0.0275229247    0.0183016977    0.0000000000
N       -1.1254860601   -0.0852509940    0.0000000000
H        1.0979493018    0.0669558777   -0.0000000000
3    
Image 12/21, Energy =   -93.4284177554 (+0.106 kcal/mol)
C        0.0221323103    0.0326682657   -0.0000000000
N       -1.0977981942   -0.2593649647    0.0000000000
H        1.0756385903    0.2266876450    0.0000000000
3    
Image 13/21, Energy =   -93.4285109362 (+0.048 kcal/mol)
C        0.0206318924    0.0266461906   -0.0000000000
N       -1.0573735318   -0.3929533694   -0.0000000000
H        1.0367054790    0.3662838327   -0.0000000000
3    
Image 14/21, Energy =   -93.4285669781 (+0.013 kcal/mol)
C        0.0211718426    0.0220133775    0.0000000000
N       -0.9870655479   -0.5474847150    0.0000000000
H        0.9658782958    0.5254380203    0.0000000000
3    
Image 15/21, Energy =   -93.4285826658 (+0.003 kcal/mol)
C        0.0209645961    0.0205403853   -0.0000000000
N       -0.9085821754   -0.6698965013    0.0000000000
H        0.8876155764    0.6493180921   -0.0000000000
3    
Image 16/21, Energy =   -93.4285870968 (+0.000 kcal/mol)
C        0.0213833771    0.0190472854   -0.0000000000
N       -0.8314273781   -0.7630143476   -0.0000000000
H        0.8100345866    0.7439408976   -0.0000000000
3    
Image 17/21, Energy =   -93.4285873953 (+0.000 kcal/mol)
C        0.0224861176    0.0177546168    0.0000000000
N       -0.9084407957   -0.6701002531    0.0000000000
H        0.8859651376    0.6523076949    0.0000000000
3    
Image 18/21, Energy =   -93.4285868205 (+0.000 kcal/mol)
C        0.0240066958    0.0158998272   -0.0000000000
N       -0.9721647971   -0.5732657673    0.0000000000
H        0.9481446251    0.5573352202    0.0000000000
3    
Image 19/21, Energy =   -93.4285803587 (+0.004 kcal/mol)
C        0.0185545307    0.0219930301    0.0000000000
N       -0.8705426727   -0.7182760867    0.0000000000
H        0.8519883862    0.6962452703    0.0000000000
3    
Image 20/21, Energy =   -93.4285861953 (+0.001 kcal/mol)
C        0.0194260556    0.0213642891    0.0000000000
N       -0.7589320377   -0.8347584640    0.0000000000
H        0.7395059821    0.8133941749    0.0000000000
