3    
Image 0/21, Energy =   -93.4051520129 (+14.706 kcal/mol)
C       -0.7519862184   -0.8272338399    0.0000000000
N        0.0394753354    0.0434721365    0.0000000000
H        0.7125108830    0.7837617034    0.0000000000
3    
Image 1/21, Energy =   -93.4022096409 (+16.552 kcal/mol)
C       -0.6579818480   -0.8727116642    0.0000000000
N       -0.0892908155    0.1601239826    0.0000000000
H        0.7472593393    0.7126123028   -0.0000000000
3    
Image 2/21, Energy =   -93.3972089260 (+19.690 kcal/mol)
C       -0.5412372783   -0.9062889098   -0.0000000000
N       -0.1765068283    0.2225426905    0.0000000000
H        0.7177032459    0.6837690530    0.0000000000
3    
Image 3/21, Energy =   -93.3915563973 (+23.237 kcal/mol)
C       -0.4206502739   -0.9231304793    0.0000000000
N       -0.2516168331    0.2557091055    0.0000000000
H        0.6722378947    0.6674468441   -0.0000000000
3    
Image 4/21, Energy =   -93.3780332895 (+31.723 kcal/mol)
C       -0.2475404336   -0.8827773553   -0.0000000000
N       -0.3770638564    0.3104581127    0.0000000000
H        0.6245822084    0.5723417155   -0.0000000000
3    
Image 5/21, Energy =   -93.3624739419 (+41.487 kcal/mol)
C       -0.1079037499   -0.7782391551   -0.0000000000
N       -0.5049961082    0.3559537048    0.0000000000
H        0.6128929322    0.4223143535   -0.0000000000
3    
Image 6/21, Energy =   -93.3548609822 (+46.264 kcal/mol)
C       -0.0591470671   -0.7164404116    0.0000000000
N       -0.5871103919    0.3574519207    0.0000000000
H        0.6462331675    0.3590201857   -0.0000000000
3    
Image 7/21, Energy =   -93.3512350163 (+48.539 kcal/mol)
C       -0.0181854002   -0.6206796548    0.0000000000
N       -0.7138453079    0.3388206659    0.0000000000
H        0.7319946693    0.2819024706   -0.0000000000
3    
Image 8/21, Energy =   -93.3748260507 (+33.736 kcal/mol)
C        0.0119764622   -0.4707939917    0.0000000000
N       -0.8869805454    0.2806412030    0.0000000000
H        0.8749979051    0.1901983260   -0.0000000000
3    
Image 9/21, Energy =   -93.4054095853 (+14.544 kcal/mol)
C        0.0166032133   -0.3080640519    0.0000000000
N       -1.0159563651    0.2165010945    0.0000000000
H        0.9993557169    0.0916310387   -0.0000000000
3    
Image 10/21, Energy =   -93.4240236176 (+2.864 kcal/mol)
C        0.0234607860   -0.1394906188   -0.0000000000
N       -1.1007280142    0.1238965226    0.0000000000
H        1.0772631392    0.0156498665   -0.0000000000
3    
Image 11/21, Energy =   -93.4284269473 (+0.101 kcal/mol)
C        0.0294480847   -0.0228401044    0.0000000000
N       -1.1257962224   -0.0903800121   -0.0000000000
H        1.0963357878    0.1132388017   -0.0000000000
3    
Image 12/21, Energy =   -93.4285843530 (+0.002 kcal/mol)
C        0.0274350614    0.0057911819   -0.0000000000
N       -1.1002081124   -0.2565973411    0.0000000000
H        1.0727495330    0.2508051603   -0.0000000000
3    
Image 13/21, Energy =   -93.4285822390 (+0.003 kcal/mol)
C        0.0255676033    0.0109904557   -0.0000000000
N       -1.0603629163   -0.3899553486   -0.0000000000
H        1.0347630699    0.3789487545   -0.0000000000
3    
Image 14/21, Energy =   -93.4285813515 (+0.004 kcal/mol)
C        0.0240440809    0.0145026175    0.0000000000
N       -0.9896754344   -0.5459015478    0.0000000000
H        0.9656210951    0.5313723035    0.0000000000
3    
Image 15/21, Energy =   -93.4285839724 (+0.002 kcal/mol)
C        0.0224157989    0.0171493326   -0.0000000000
N       -0.9099733646   -0.6698777057    0.0000000000
H        0.8875611785    0.6526962007   -0.0000000000
3    
Image 16/21, Energy =   -93.4285824463 (+0.003 kcal/mol)
C        0.0205878951    0.0188369996   -0.0000000000
N       -0.8304569557   -0.7663266918   -0.0000000000
H        0.8098654336    0.7474690391   -0.0000000000
3    
Image 17/21, Energy =   -93.4285873953 (+0.000 kcal/mol)
C        0.0224861176    0.0177546168    0.0000000000
N       -0.9084407957   -0.6701002531    0.0000000000
H        0.8859651376    0.6523076949    0.0000000000
3    
Image 18/21, Energy =   -93.4285868205 (+0.000 kcal/mol)
C        0.0240066958    0.0158998272   -0.0000000000
N       -0.9721647971   -0.5732657673    0.0000000000
H        0.9481446251    0.5573352202    0.0000000000
3    
Image 19/21, Energy =   -93.4285869330 (+0.000 kcal/mol)
C        0.0218425489    0.0186367579   -0.0000000000
N       -0.8718499905   -0.7163722313    0.0000000000
H        0.8500126015    0.6977039271    0.0000000000
3    
Image 20/21, Energy =   -93.4285861953 (+0.001 kcal/mol)
C        0.0194260556    0.0213642891    0.0000000000
N       -0.7589320377   -0.8347584640    0.0000000000
H        0.7395059821    0.8133941749    0.0000000000
