3    
Image 0/21, Energy =   -93.4051520129 (+14.705 kcal/mol)
C       -0.7519862184   -0.8272338399    0.0000000000
N        0.0394753354    0.0434721365    0.0000000000
H        0.7125108830    0.7837617034    0.0000000000
3    
Image 1/21, Energy =   -93.4016770583 (+16.886 kcal/mol)
C       -0.6791031754   -0.8651440359    0.0000000000
N       -0.0939539324    0.1536555212    0.0000000000
H        0.7730571078    0.7114885147    0.0000000000
3    
Image 2/21, Energy =   -93.3960399953 (+20.423 kcal/mol)
C       -0.5987925976   -0.8569221032    0.0000000000
N       -0.1664612899    0.2482456901    0.0000000000
H        0.7652538875    0.6086764131    0.0000000000
3    
Image 3/21, Energy =   -93.3861774894 (+26.612 kcal/mol)
C       -0.5104421971   -0.8320762423    0.0000000000
N       -0.2350198521    0.3302506037    0.0000000000
H        0.7454620492    0.5018256387    0.0000000000
3    
Image 4/21, Energy =   -93.3656500952 (+39.493 kcal/mol)
C       -0.3285125678   -0.7623933809    0.0000000000
N       -0.4002709202    0.4323311431    0.0000000000
H        0.7287834879    0.3300622377    0.0000000000
3    
Image 5/21, Energy =   -93.3308373870 (+61.338 kcal/mol)
C       -0.2834693065   -0.7398086548    0.0000000000
N       -0.5234080530    0.3555626759    0.0000000000
H        0.8068773595    0.3842459789    0.0000000000
3    
Image 6/21, Energy =   -93.2560094427 (+108.294 kcal/mol)
C       -0.2731765562   -0.7340398329    0.0000000000
N       -0.6259643404    0.2548425906    0.0000000000
H        0.8991408966    0.4791972423    0.0000000000
3    
Image 7/21, Energy =   -93.1996900594 (+143.634 kcal/mol)
C       -0.2202604675   -0.6888116911    0.0000000000
N       -0.7117562589    0.1887245945    0.0000000000
H        0.9320167264    0.5000870966    0.0000000000
3    
Image 8/21, Energy =   -93.3141283552 (+71.823 kcal/mol)
C       -0.1461230752   -0.6583658411    0.0000000000
N       -0.7219272169    0.2887456048    0.0000000000
H        0.8680502921    0.3696202363    0.0000000000
3    
Image 9/21, Energy =   -93.3484759060 (+50.270 kcal/mol)
C       -0.0586746303   -0.5883421946    0.0000000000
N       -0.7337753429    0.3326639144    0.0000000000
H        0.7924499733    0.2556782802    0.0000000000
3    
Image 10/21, Energy =   -93.3585884251 (+43.924 kcal/mol)
C        0.0377886419   -0.4850569788    0.0000000000
N       -0.8327766523    0.2299224855    0.0000000000
H        0.7949880104    0.2551344933    0.0000000000
3    
Image 11/21, Energy =   -93.3702522635 (+36.605 kcal/mol)
C        0.1369513427   -0.3718118133    0.0000000000
N       -0.9578753872    0.0832647997    0.0000000000
H        0.8209240445    0.2885470136    0.0000000000
3    
Image 12/21, Energy =   -93.3950590176 (+21.039 kcal/mol)
C        0.1608932366   -0.2858093870    0.0000000000
N       -1.0340603966   -0.1303628280    0.0000000000
H        0.8731671601    0.4161722150    0.0000000000
3    
Image 13/21, Energy =   -93.4109196255 (+11.086 kcal/mol)
C        0.1488453596   -0.2175409032    0.0000000000
N       -1.0394713428   -0.3137019400    0.0000000000
H        0.8906259832    0.5312428432    0.0000000000
3    
Image 14/21, Energy =   -93.4100045113 (+11.660 kcal/mol)
C        0.1367974827   -0.1492724195    0.0000000000
N       -1.0448822890   -0.4970410519    0.0000000000
H        0.9080848063    0.6463134714    0.0000000000
3    
Image 15/21, Energy =   -93.4186189074 (+6.255 kcal/mol)
C        0.0978881158   -0.0900907063    0.0000000000
N       -0.9736957814   -0.6406525381    0.0000000000
H        0.8758076657    0.7307432445    0.0000000000
3    
Image 16/21, Energy =   -93.4157121928 (+8.079 kcal/mol)
C        0.0589787488   -0.0309089931    0.0000000000
N       -0.9025092739   -0.7842640244    0.0000000000
H        0.8435305251    0.8151730175    0.0000000000
3    
Image 17/21, Energy =   -93.4106633774 (+11.247 kcal/mol)
C        0.0618596996   -0.0824132042    0.0000000000
N       -0.8725068997   -0.6322967002    0.0000000000
H        0.8106472001    0.7147099044    0.0000000000
3    
Image 18/21, Energy =   -93.2950932664 (+83.768 kcal/mol)
C        0.0703371899   -0.1446248369    0.0000000000
N       -0.8509826155   -0.4529597271    0.0000000000
H        0.7806454256    0.5975845640    0.0000000000
3    
Image 19/21, Energy =   -93.4101573189 (+11.564 kcal/mol)
C        0.0521690016   -0.0641730619    0.0000000000
N       -0.8453793917   -0.6653441310    0.0000000000
H        0.7932103901    0.7295171929    0.0000000000
3    
Image 20/21, Energy =   -93.4285861953 (+0.000 kcal/mol)
C        0.0194260556    0.0213642891    0.0000000000
N       -0.7589320377   -0.8347584640    0.0000000000
H        0.7395059821    0.8133941749    0.0000000000
