3    
Image 0/21, Energy =   -93.4051520129 (+14.705 kcal/mol)
C       -0.7519862184   -0.8272338399    0.0000000000
N        0.0394753354    0.0434721365    0.0000000000
H        0.7125108830    0.7837617034    0.0000000000
3    
Image 1/21, Energy =   -93.4024715694 (+16.387 kcal/mol)
C       -0.6776847470   -0.8589728050   -0.0000000000
N       -0.0795728807    0.1563061833    0.0000000000
H        0.7572597732    0.7026697525   -0.0000000000
3    
Image 2/21, Energy =   -93.3960476433 (+20.418 kcal/mol)
C       -0.5994882028   -0.8577913926   -0.0000000000
N       -0.1697161642    0.2485854647   -0.0000000000
H        0.7692013417    0.6092094950    0.0000000000
3    
Image 3/21, Energy =   -93.3866725361 (+26.301 kcal/mol)
C       -0.5082339210   -0.8395162885    0.0000000000
N       -0.2464520918    0.3292710700   -0.0000000000
H        0.7546814388    0.5102462785    0.0000000000
3    
Image 4/21, Energy =   -93.3773548757 (+32.148 kcal/mol)
C       -0.4153048364   -0.8211316845    0.0000000000
N       -0.3059016315    0.3880070689   -0.0000000000
H        0.7212010673    0.4331277271   -0.0000000000
3    
Image 5/21, Energy =   -93.3702393985 (+36.613 kcal/mol)
C       -0.3246241519   -0.7942369320    0.0000000000
N       -0.3803379570    0.4044450172    0.0000000000
H        0.7049625246    0.3897945784   -0.0000000000
3    
Image 6/21, Energy =   -93.3554250527 (+45.909 kcal/mol)
C       -0.2068120537   -0.7926570593    0.0000000000
N       -0.5200448220    0.3619565070    0.0000000000
H        0.7268571946    0.4307033697   -0.0000000000
3    
Image 7/21, Energy =   -93.3440156444 (+53.069 kcal/mol)
C       -0.1487961773   -0.7653905299    0.0000000000
N       -0.6077253314    0.3400707200    0.0000000000
H        0.7565213226    0.4253228978    0.0000000000
3    
Image 8/21, Energy =   -93.3427427671 (+53.868 kcal/mol)
C       -0.0903759920   -0.6996932970    0.0000000000
N       -0.6821599530    0.3316969114    0.0000000000
H        0.7725313407    0.3679998333    0.0000000000
3    
Image 9/21, Energy =   -93.3528239485 (+47.542 kcal/mol)
C       -0.0358177311   -0.6006865328    0.0000000000
N       -0.7651316324    0.3294083869   -0.0000000000
H        0.8009495788    0.2712889052   -0.0000000000
3    
Image 10/21, Energy =   -93.3705191122 (+36.438 kcal/mol)
C        0.0156407833   -0.4966815961    0.0000000000
N       -0.8767013357    0.2658576625    0.0000000000
H        0.8610659931    0.2308318734   -0.0000000000
3    
Image 11/21, Energy =   -93.3935853959 (+21.963 kcal/mol)
C        0.0672960863   -0.3742797151    0.0000000000
N       -0.9944028190    0.1018802853    0.0000000000
H        0.9271190394    0.2724087967   -0.0000000000
3    
Image 12/21, Energy =   -93.4107891666 (+11.168 kcal/mol)
C        0.0983407162   -0.2565206001   -0.0000000000
N       -1.0536679760   -0.1254238496    0.0000000000
H        0.9553226728    0.3819582106   -0.0000000000
3    
Image 13/21, Energy =   -93.4193296696 (+5.809 kcal/mol)
C        0.1043152398   -0.1707928826   -0.0000000000
N       -1.0439357763   -0.3193922397    0.0000000000
H        0.9396110568    0.4901885089   -0.0000000000
3    
Image 14/21, Energy =   -93.4247860530 (+2.385 kcal/mol)
C        0.0907533392   -0.0917433326    0.0000000000
N       -0.9918747068   -0.4987662546   -0.0000000000
H        0.9011137761    0.5905097515   -0.0000000000
3    
Image 15/21, Energy =   -93.4270041503 (+0.993 kcal/mol)
C        0.0727690837   -0.0465997620   -0.0000000000
N       -0.9274714508   -0.6268880971    0.0000000000
H        0.8547037378    0.6734825303   -0.0000000000
3    
Image 16/21, Energy =   -93.4283519759 (+0.147 kcal/mol)
C        0.0428649398   -0.0036335451   -0.0000000000
N       -0.8458971216   -0.7478092409   -0.0000000000
H        0.8030337379    0.7514388034   -0.0000000000
3    
Image 17/21, Energy =   -93.4266606839 (+1.208 kcal/mol)
C        0.0783146443   -0.0550619448    0.0000000000
N       -0.9192019605   -0.6432908429    0.0000000000
H        0.8408897362    0.6983471162   -0.0000000000
3    
Image 18/21, Energy =   -93.4236625715 (+3.090 kcal/mol)
C        0.1043047145   -0.1063484359    0.0000000000
N       -0.9694725749   -0.5482211913    0.0000000000
H        0.8651585742    0.6545677591    0.0000000000
3    
Image 19/21, Energy =   -93.4273571627 (+0.771 kcal/mol)
C        0.0679821046   -0.0385427142   -0.0000000000
N       -0.8928404604   -0.6837005779    0.0000000000
H        0.8248613208    0.7222369434   -0.0000000000
3    
Image 20/21, Energy =   -93.4285861953 (+0.000 kcal/mol)
C        0.0194260556    0.0213642891    0.0000000000
N       -0.7589320377   -0.8347584640    0.0000000000
H        0.7395059821    0.8133941749    0.0000000000
