3    
Image 0/21, Energy =   -93.4051520129 (+14.705 kcal/mol)
C       -0.7519862184   -0.8272338399    0.0000000000
N        0.0394753354    0.0434721365    0.0000000000
H        0.7125108830    0.7837617034    0.0000000000
3    
Image 1/21, Energy =   -93.4017556651 (+16.836 kcal/mol)
C       -0.6649955107   -0.8609189995   -0.0000000000
N       -0.0936085099    0.1697590995    0.0000000000
H        0.7586039793    0.6911736689   -0.0000000000
3    
Image 2/21, Energy =   -93.3960248913 (+20.433 kcal/mol)
C       -0.5838363086   -0.8707726240    0.0000000000
N       -0.1762554443    0.2461363239    0.0000000000
H        0.7600691447    0.6246497891    0.0000000000
3    
Image 3/21, Energy =   -93.3891660867 (+24.736 kcal/mol)
C       -0.5075623261   -0.8758908699   -0.0000000000
N       -0.2264705447    0.3036706904    0.0000000000
H        0.7340008415    0.5722301918    0.0000000000
3    
Image 4/21, Energy =   -93.3739884508 (+34.261 kcal/mol)
C       -0.2395949184   -0.8755394206    0.0000000000
N       -0.3917485801    0.3439889132    0.0000000000
H        0.6313463982    0.5315667537   -0.0000000000
3    
Image 5/21, Energy =   -93.3592088120 (+43.535 kcal/mol)
C       -0.0854899020   -0.7701262044   -0.0000000000
N       -0.5471707232    0.3520127350    0.0000000000
H        0.6326608543    0.4181220683    0.0000000000
3    
Image 6/21, Energy =   -93.3552716642 (+46.006 kcal/mol)
C       -0.0703366023   -0.7258909124    0.0000000000
N       -0.5829843893    0.3564312453    0.0000000000
H        0.6533121959    0.3694748324   -0.0000000000
3    
Image 7/21, Energy =   -93.3524676382 (+47.765 kcal/mol)
C       -0.0167596608   -0.6098713401    0.0000000000
N       -0.7464921121    0.3313926919    0.0000000000
H        0.7632323237    0.2785128099   -0.0000000000
3    
Image 8/21, Energy =   -93.3734831040 (+34.578 kcal/mol)
C        0.0050077364   -0.4842508328   -0.0000000000
N       -0.8849574863    0.2963764998    0.0000000000
H        0.8799623324    0.1879049750   -0.0000000000
3    
Image 9/21, Energy =   -93.4019568071 (+16.710 kcal/mol)
C        0.0177298207   -0.3302036147   -0.0000000000
N       -1.0077539652    0.2542768750    0.0000000000
H        0.9900567781    0.0759628672   -0.0000000000
3    
Image 10/21, Energy =   -93.4190927288 (+5.957 kcal/mol)
C        0.0372788313   -0.1973689682   -0.0000000000
N       -1.1033563951    0.0943911502   -0.0000000000
H        1.0660844127    0.1030126049   -0.0000000000
3    
Image 11/21, Energy =   -93.4256569793 (+1.838 kcal/mol)
C        0.0501029395   -0.0746900557    0.0000000000
N       -1.1329639690   -0.0995486398   -0.0000000000
H        1.0828371590    0.1742878802   -0.0000000000
3    
Image 12/21, Energy =   -93.4273261988 (+0.791 kcal/mol)
C        0.0496303495   -0.0426327426   -0.0000000000
N       -1.0983107174   -0.2860194806    0.0000000000
H        1.0486549633    0.3286618934   -0.0000000000
3    
Image 13/21, Energy =   -93.4280047896 (+0.365 kcal/mol)
C        0.0457292280   -0.0197889250   -0.0000000000
N       -1.0624348466   -0.3852310029   -0.0000000000
H        1.0166711718    0.4050168637   -0.0000000000
3    
Image 14/21, Energy =   -93.4282997962 (+0.180 kcal/mol)
C        0.0391851345    0.0019900453    0.0000000000
N       -0.9854180222   -0.5454399731    0.0000000000
H        0.9462259277    0.5434339507    0.0000000000
3    
Image 15/21, Energy =   -93.4284450218 (+0.089 kcal/mol)
C        0.0319309895    0.0130537106   -0.0000000000
N       -0.9074574410   -0.6664022541    0.0000000000
H        0.8755341245    0.6533243390   -0.0000000000
3    
Image 16/21, Energy =   -93.4284596405 (+0.079 kcal/mol)
C        0.0226755422    0.0221320203   -0.0000000000
N       -0.8236815468   -0.7631103112    0.0000000000
H        0.8010086127    0.7409627743   -0.0000000000
3    
Image 17/21, Energy =   -93.4284995167 (+0.054 kcal/mol)
C        0.0347933374    0.0019346616    0.0000000000
N       -0.9151900155   -0.6617555063    0.0000000000
H        0.8804073188    0.6597945088   -0.0000000000
3    
Image 18/21, Energy =   -93.4283249170 (+0.164 kcal/mol)
C        0.0408453782   -0.0130416521   -0.0000000000
N       -0.9806108809   -0.5636545643    0.0000000000
H        0.9397491640    0.5766809730    0.0000000000
3    
Image 19/21, Energy =   -93.4284803796 (+0.066 kcal/mol)
C        0.0269858414    0.0062154403   -0.0000000000
N       -0.8802278359   -0.7071831452    0.0000000000
H        0.8532502560    0.7009441210    0.0000000000
3    
Image 20/21, Energy =   -93.4285861953 (+0.000 kcal/mol)
C        0.0194260556    0.0213642891    0.0000000000
N       -0.7589320377   -0.8347584640    0.0000000000
H        0.7395059821    0.8133941749    0.0000000000
