3    
Image 0/11, Energy =   -92.8148741520 (+8.372 kcal/mol)
C       -0.7423976055   -0.8166733316    0.0000000000
N        0.0415634250    0.0457411997    0.0000000000
H        0.7008341858    0.7709321319   -0.0000000000
3    
Image 1/11, Energy =   -92.8039492119 (+15.228 kcal/mol)
C       -0.6232522875   -0.8497153154    0.0000000000
N       -0.1302354806    0.2138623977    0.0000000000
H        0.7534877681    0.6358529177    0.0000000000
3    
Image 2/11, Energy =   -92.7723136566 (+35.079 kcal/mol)
C       -0.4490487911   -0.8138358419    0.0000000000
N       -0.2833448514    0.3653399588    0.0000000000
H        0.7323936425    0.4484958832    0.0000000000
3    
Image 3/11, Energy =   -92.7443629971 (+52.618 kcal/mol)
C       -0.2859397505   -0.7539072098    0.0000000000
N       -0.4143874953    0.4338204021    0.0000000000
H        0.7003272458    0.3200868092    0.0000000000
3    
Image 4/11, Energy =   -92.7236064005 (+65.643 kcal/mol)
C       -0.1092497147   -0.6380872944    0.0000000000
N       -0.6387949895    0.4243207148    0.0000000000
H        0.7480447042    0.2137665849    0.0000000000
3    
Image 5/11, Energy =   -92.7405965704 (+54.982 kcal/mol)
C       -0.0060103688   -0.4993523955    0.0000000000
N       -0.8296214093    0.2829754768   -0.0000000000
H        0.8356317823    0.2163769239   -0.0000000000
3    
Image 6/11, Energy =   -92.7733458573 (+34.431 kcal/mol)
C        0.0525765011   -0.3934717607   -0.0000000000
N       -0.9582947783    0.1482409585   -0.0000000000
H        0.9057182790    0.2452308041    0.0000000000
3    
Image 7/11, Energy =   -92.7950408264 (+20.818 kcal/mol)
C        0.0705856474   -0.1988464567    0.0000000000
N       -1.0001282077   -0.3007173654   -0.0000000000
H        0.9295425658    0.4995638272    0.0000000000
3    
Image 8/11, Energy =   -92.8215312215 (+4.195 kcal/mol)
C        0.0848531365   -0.0988106716   -0.0000000000
N       -0.9636745211   -0.5058530140   -0.0000000000
H        0.8788213899    0.6046636865   -0.0000000000
3    
Image 9/11, Energy =   -92.8206484548 (+4.749 kcal/mol)
C        0.0782449013   -0.0053351072    0.0000000000
N       -0.8838710278   -0.7122050668   -0.0000000000
H        0.8056261318    0.7175401740    0.0000000000
3    
Image 10/11, Energy =   -92.8282158336 (+0.000 kcal/mol)
C        0.0205094217    0.0225582742    0.0000000000
N       -0.7491564844   -0.8240073309    0.0000000000
H        0.7286470574    0.8014490567    0.0000000000
