3    
Image 0/11, Energy =   -92.8148741520 (+8.372 kcal/mol)
C       -0.7423976055   -0.8166733316    0.0000000000
N        0.0415634250    0.0457411997    0.0000000000
H        0.7008341858    0.7709321319   -0.0000000000
3    
Image 1/11, Energy =   -92.8047643614 (+14.716 kcal/mol)
C       -0.5939442841   -0.8737038127   -0.0000000000
N       -0.1332935045    0.2012858261    0.0000000000
H        0.7272377886    0.6724179919    0.0000000000
3    
Image 2/11, Energy =   -92.7750774950 (+33.345 kcal/mol)
C       -0.3813846859   -0.8603000545    0.0000000000
N       -0.3056341363    0.3282461095    0.0000000000
H        0.6870188222    0.5320539503   -0.0000000000
3    
Image 3/11, Energy =   -92.7466624496 (+51.176 kcal/mol)
C       -0.2392189609   -0.7816678315   -0.0000000000
N       -0.4341906576    0.3967059146    0.0000000000
H        0.6734096184    0.3849619222   -0.0000000000
3    
Image 4/11, Energy =   -92.7236064005 (+65.643 kcal/mol)
C       -0.1092497147   -0.6380872944    0.0000000000
N       -0.6387949895    0.4243207148    0.0000000000
H        0.7480447042    0.2137665849    0.0000000000
3    
Image 5/11, Energy =   -92.7588530875 (+43.526 kcal/mol)
C       -0.0501728341   -0.4473586987   -0.0000000000
N       -0.8488070099    0.3914195428    0.0000000000
H        0.8989798441    0.0559391612   -0.0000000000
3    
Image 6/11, Energy =   -92.8045653262 (+14.841 kcal/mol)
C        0.0019350048   -0.2583305909    0.0000000000
N       -1.0108456612    0.3287947854   -0.0000000000
H        1.0089106599   -0.0704641893    0.0000000000
3    
Image 7/11, Energy =   -92.8240948730 (+2.586 kcal/mol)
C        0.0365437558   -0.1069546392    0.0000000000
N       -1.1123965932    0.0407006459    0.0000000000
H        1.0758528381    0.0662539986   -0.0000000000
3    
Image 8/11, Energy =   -92.8280769989 (+0.087 kcal/mol)
C        0.0219841441    0.0265289589   -0.0000000000
N       -1.0651206191   -0.3249626264   -0.0000000000
H        1.0431364750    0.2984336728    0.0000000000
3    
Image 9/11, Energy =   -92.8276761244 (+0.339 kcal/mol)
C        0.0268263169    0.0289219629    0.0000000000
N       -0.9819958089   -0.5376969777    0.0000000000
H        0.9551694973    0.5087750200   -0.0000000000
3    
Image 10/11, Energy =   -92.8282158336 (+0.000 kcal/mol)
C        0.0205094217    0.0225582742    0.0000000000
N       -0.7491564844   -0.8240073309    0.0000000000
H        0.7286470574    0.8014490567    0.0000000000
