3    
Image 0/11, Energy =   -92.8148741520 (+8.372 kcal/mol)
C       -0.7423976055   -0.8166733316    0.0000000000
N        0.0415634250    0.0457411997    0.0000000000
H        0.7008341858    0.7709321319   -0.0000000000
3    
Image 1/11, Energy =   -92.8046070674 (+14.815 kcal/mol)
C       -0.5980057613   -0.8717113038   -0.0000000000
N       -0.1326335044    0.2048443938    0.0000000000
H        0.7306392657    0.6668669153    0.0000000000
3    
Image 2/11, Energy =   -92.7750565548 (+33.358 kcal/mol)
C       -0.3837870822   -0.8589854991    0.0000000000
N       -0.3047993919    0.3290232511    0.0000000000
H        0.6885864741    0.5299622533   -0.0000000000
3    
Image 3/11, Energy =   -92.7466748202 (+51.168 kcal/mol)
C       -0.2384211775   -0.7822576280   -0.0000000000
N       -0.4344684432    0.3967989631    0.0000000000
H        0.6728896207    0.3854586702   -0.0000000000
3    
Image 4/11, Energy =   -92.7236064005 (+65.643 kcal/mol)
C       -0.1092497147   -0.6380872944    0.0000000000
N       -0.6387949895    0.4243207148    0.0000000000
H        0.7480447042    0.2137665849    0.0000000000
3    
Image 5/11, Energy =   -92.7587555780 (+43.587 kcal/mol)
C       -0.0503110947   -0.4482543688   -0.0000000000
N       -0.8478772401    0.3952535660   -0.0000000000
H        0.8981883348    0.0530008081   -0.0000000000
3    
Image 6/11, Energy =   -92.8063425614 (+13.726 kcal/mol)
C       -0.0156600821   -0.2478996745    0.0000000000
N       -0.9958860123    0.3201024142   -0.0000000000
H        1.0115460988   -0.0722027344    0.0000000000
3    
Image 7/11, Energy =   -92.8231940363 (+3.151 kcal/mol)
C        0.0362926221   -0.1136724268    0.0000000000
N       -1.0886726293    0.0260557038    0.0000000000
H        1.0523800076    0.0876167282   -0.0000000000
3    
Image 8/11, Energy =   -92.8280611179 (+0.097 kcal/mol)
C        0.0238558227    0.0295449345   -0.0000000000
N       -1.0660912081   -0.3220571799   -0.0000000000
H        1.0422353855    0.2925122507    0.0000000000
3    
Image 9/11, Energy =   -92.8280506794 (+0.104 kcal/mol)
C        0.0170666998    0.0273029617    0.0000000000
N       -0.9731300174   -0.5349900417    0.0000000000
H        0.9560633229    0.5076870853   -0.0000000000
3    
Image 10/11, Energy =   -92.8282158336 (+0.000 kcal/mol)
C        0.0205094217    0.0225582742    0.0000000000
N       -0.7491564844   -0.8240073309    0.0000000000
H        0.7286470574    0.8014490567    0.0000000000
