3    
Image 0/11, Energy =   -92.8148741520 (+8.372 kcal/mol)
C       -0.7423976055   -0.8166733316    0.0000000000
N        0.0415634250    0.0457411997    0.0000000000
H        0.7008341858    0.7709321319   -0.0000000000
3    
Image 1/11, Energy =   -92.8054698257 (+14.273 kcal/mol)
C       -0.5717948714   -0.8922168385   -0.0000000000
N       -0.1332880446    0.1924555520    0.0000000000
H        0.7050829160    0.6997612918   -0.0000000000
3    
Image 2/11, Energy =   -92.7751543094 (+33.297 kcal/mol)
C       -0.3751585231   -0.8632083646    0.0000000000
N       -0.3077332521    0.3255291629    0.0000000000
H        0.6828917753    0.5376792070   -0.0000000000
3    
Image 3/11, Energy =   -92.7465980585 (+51.216 kcal/mol)
C       -0.2418291100   -0.7804037559   -0.0000000000
N       -0.4330434431    0.3982009079    0.0000000000
H        0.6748725531    0.3822028533   -0.0000000000
3    
Image 4/11, Energy =   -92.7236064005 (+65.643 kcal/mol)
C       -0.1092497147   -0.6380872944    0.0000000000
N       -0.6387949895    0.4243207148    0.0000000000
H        0.7480447042    0.2137665849    0.0000000000
3    
Image 5/11, Energy =   -92.7589472698 (+43.467 kcal/mol)
C       -0.0446514652   -0.4474104064    0.0000000000
N       -0.8537781426    0.3805598895    0.0000000000
H        0.8984296078    0.0668505222    0.0000000000
3    
Image 6/11, Energy =   -92.8070674894 (+13.271 kcal/mol)
C       -0.0106275488   -0.2486923236   -0.0000000000
N       -1.0022225734    0.3192582913    0.0000000000
H        1.0128501225   -0.0705659624   -0.0000000000
3    
Image 7/11, Energy =   -92.8279342920 (+0.177 kcal/mol)
C        0.0300563550   -0.0301647252    0.0000000000
N       -1.1117188397    0.0374089203    0.0000000000
H        1.0816624858   -0.0072441898    0.0000000000
3    
Image 8/11, Energy =   -92.8282020507 (+0.009 kcal/mol)
C        0.0276537668    0.0099731324   -0.0000000000
N       -1.0659384492   -0.3192430659   -0.0000000000
H        1.0382846825    0.3092699387    0.0000000000
3    
Image 9/11, Energy =   -92.8282032613 (+0.008 kcal/mol)
C        0.0275571631    0.0154809375    0.0000000000
N       -0.9801291732   -0.5306078431    0.0000000000
H        0.9525720153    0.5151269109   -0.0000000000
3    
Image 10/11, Energy =   -92.8282158336 (+0.000 kcal/mol)
C        0.0205094217    0.0225582742    0.0000000000
N       -0.7491564844   -0.8240073309    0.0000000000
H        0.7286470574    0.8014490567    0.0000000000
