3    
Image 0/11, Energy =   -92.8148741520 (+8.372 kcal/mol)
C       -0.7423976055   -0.8166733316    0.0000000000
N        0.0415634250    0.0457411997    0.0000000000
H        0.7008341858    0.7709321319   -0.0000000000
3    
Image 1/11, Energy =   -92.8039962920 (+15.198 kcal/mol)
C       -0.6168789843   -0.8549914028    0.0000000000
N       -0.1316946195    0.2126961807    0.0000000000
H        0.7485736038    0.6422952224    0.0000000000
3    
Image 2/11, Energy =   -92.7736395212 (+34.247 kcal/mol)
C       -0.4174450777   -0.8370114578    0.0000000000
N       -0.2950304601    0.3478781244    0.0000000000
H        0.7124755378    0.4891333358    0.0000000000
3    
Image 3/11, Energy =   -92.7462666151 (+51.424 kcal/mol)
C       -0.2508149127   -0.7766980949    0.0000000000
N       -0.4302526465    0.4045773715    0.0000000000
H        0.6810675592    0.3721207281    0.0000000000
3    
Image 4/11, Energy =   -92.7236064005 (+65.643 kcal/mol)
C       -0.1092497147   -0.6380872944    0.0000000000
N       -0.6387949895    0.4243207148    0.0000000000
H        0.7480447042    0.2137665849    0.0000000000
3    
Image 5/11, Energy =   -92.7549871718 (+45.952 kcal/mol)
C       -0.0447562997   -0.4651256609   -0.0000000000
N       -0.8454186747    0.3815277493   -0.0000000000
H        0.8901749743    0.0835979168   -0.0000000000
3    
Image 6/11, Energy =   -92.7986387431 (+18.560 kcal/mol)
C       -0.0015618854   -0.2945179207    0.0000000000
N       -0.9997085918    0.2591771752    0.0000000000
H        1.0012704802    0.0353407514    0.0000000000
3    
Image 7/11, Energy =   -92.8275812798 (+0.398 kcal/mol)
C        0.0363485598   -0.0291447936    0.0000000000
N       -1.0748892369   -0.3080396789   -0.0000000000
H        1.0385406817    0.3371844769    0.0000000000
3    
Image 8/11, Energy =   -92.8277388171 (+0.299 kcal/mol)
C        0.0366257449    0.0059403469    0.0000000000
N       -0.9864921099   -0.5342785357   -0.0000000000
H        0.9498663703    0.5283381906   -0.0000000000
3    
Image 9/11, Energy =   -92.8281267063 (+0.056 kcal/mol)
C        0.0225918962    0.0244462111    0.0000000000
N       -0.8465754598   -0.7279951553   -0.0000000000
H        0.8239835685    0.7035489442    0.0000000000
3    
Image 10/11, Energy =   -92.8282158336 (+0.000 kcal/mol)
C        0.0205094217    0.0225582742    0.0000000000
N       -0.7491564844   -0.8240073309    0.0000000000
H        0.7286470574    0.8014490567    0.0000000000
