3    
Image 0/11, Energy =   -92.8148741520 (+8.372 kcal/mol)
C       -0.7423976055   -0.8166733316    0.0000000000
N        0.0415634250    0.0457411997    0.0000000000
H        0.7008341858    0.7709321319   -0.0000000000
3    
Image 1/11, Energy =   -92.8039492119 (+15.228 kcal/mol)
C       -0.6232522875   -0.8497153154    0.0000000000
N       -0.1302354806    0.2138623977    0.0000000000
H        0.7534877681    0.6358529177    0.0000000000
3    
Image 2/11, Energy =   -92.7723807144 (+35.037 kcal/mol)
C       -0.4482934510   -0.8147900750    0.0000000000
N       -0.2835710896    0.3649713979    0.0000000000
H        0.7318645406    0.4498186773    0.0000000000
3    
Image 3/11, Energy =   -92.7443672396 (+52.616 kcal/mol)
C       -0.2848242653   -0.7541064549    0.0000000000
N       -0.4150163084    0.4328203455    0.0000000000
H        0.6998405737    0.3212861110    0.0000000000
3    
Image 4/11, Energy =   -92.7236064005 (+65.643 kcal/mol)
C       -0.1092497147   -0.6380872944    0.0000000000
N       -0.6387949895    0.4243207148    0.0000000000
H        0.7480447042    0.2137665849    0.0000000000
3    
Image 5/11, Energy =   -92.7418384794 (+54.203 kcal/mol)
C       -0.0056825410   -0.5069528342    0.0000000000
N       -0.8300268095    0.2966982160    0.0000000000
H        0.8357093544    0.2102546234    0.0000000000
3    
Image 6/11, Energy =   -92.7747524482 (+33.549 kcal/mol)
C        0.0560402458   -0.3897743489   -0.0000000000
N       -0.9641615041    0.1493731844    0.0000000000
H        0.9081212602    0.2404011666    0.0000000000
3    
Image 7/11, Energy =   -92.8109742398 (+10.819 kcal/mol)
C        0.0994892416   -0.1925048805    0.0000000000
N       -1.0217373224   -0.2805016371   -0.0000000000
H        0.9222480860    0.4730065225   -0.0000000000
3    
Image 8/11, Energy =   -92.8230859410 (+3.219 kcal/mol)
C        0.0947274982   -0.0872920024   -0.0000000000
N       -0.9742442656   -0.5149716423   -0.0000000000
H        0.8795167727    0.6022636456   -0.0000000000
3    
Image 9/11, Energy =   -92.8254985493 (+1.705 kcal/mol)
C        0.0438417081   -0.0258355219    0.0000000000
N       -0.8509922127   -0.6990270706   -0.0000000000
H        0.8071505098    0.7248625925    0.0000000000
3    
Image 10/11, Energy =   -92.8282158336 (+0.000 kcal/mol)
C        0.0205094217    0.0225582742    0.0000000000
N       -0.7491564844   -0.8240073309    0.0000000000
H        0.7286470574    0.8014490567    0.0000000000
