3    
Image 0/11, Energy =   -92.8148741520 (+8.372 kcal/mol)
C       -0.7423976055   -0.8166733316    0.0000000000
N        0.0415634250    0.0457411997    0.0000000000
H        0.7008341858    0.7709321319   -0.0000000000
3    
Image 1/11, Energy =   -92.8056627505 (+14.152 kcal/mol)
C       -0.5637252647   -0.8984871087   -0.0000000000
N       -0.1334339895    0.1899091207    0.0000000000
H        0.6971592542    0.7085779933   -0.0000000000
3    
Image 2/11, Energy =   -92.7751543094 (+33.297 kcal/mol)
C       -0.3751585231   -0.8632083646    0.0000000000
N       -0.3077332521    0.3255291629    0.0000000000
H        0.6828917753    0.5376792070   -0.0000000000
3    
Image 3/11, Energy =   -92.7465679908 (+51.235 kcal/mol)
C       -0.2421516650   -0.7810193092    0.0000000000
N       -0.4331173598    0.3996483774    0.0000000000
H        0.6752690248    0.3813709371   -0.0000000000
3    
Image 4/11, Energy =   -92.7236064005 (+65.643 kcal/mol)
C       -0.1092497147   -0.6380872944    0.0000000000
N       -0.6387949895    0.4243207148    0.0000000000
H        0.7480447042    0.2137665849    0.0000000000
3    
Image 5/11, Energy =   -92.7589623623 (+43.457 kcal/mol)
C       -0.0435420262   -0.4480554836    0.0000000000
N       -0.8547273497    0.3803410237    0.0000000000
H        0.8982693759    0.0677144652    0.0000000000
3    
Image 6/11, Energy =   -92.8071273770 (+13.233 kcal/mol)
C       -0.0092411893   -0.2487419846   -0.0000000000
N       -1.0039563390    0.3161388086    0.0000000000
H        1.0131975280   -0.0673968188    0.0000000000
3    
Image 7/11, Energy =   -92.8281543133 (+0.039 kcal/mol)
C        0.0302318141   -0.0146829157    0.0000000000
N       -1.1122876270    0.0406190546    0.0000000000
H        1.0820558139   -0.0259361335    0.0000000000
3    
Image 8/11, Energy =   -92.8282158032 (+0.000 kcal/mol)
C        0.0291352301    0.0090185406   -0.0000000000
N       -1.0669747657   -0.3190479322   -0.0000000000
H        1.0378395356    0.3100293969    0.0000000000
3    
Image 9/11, Energy =   -92.8282157715 (+0.000 kcal/mol)
C        0.0269572129    0.0141826930    0.0000000000
N       -0.9793999954   -0.5299405470    0.0000000000
H        0.9524427876    0.5157578592   -0.0000000000
3    
Image 10/11, Energy =   -92.8282158336 (+0.000 kcal/mol)
C        0.0205094217    0.0225582742    0.0000000000
N       -0.7491564844   -0.8240073309    0.0000000000
H        0.7286470574    0.8014490567    0.0000000000
