3    
Image 0/11, Energy =   -92.8148741520 (+8.372 kcal/mol)
C       -0.7423976055   -0.8166733316    0.0000000000
N        0.0415634250    0.0457411997    0.0000000000
H        0.7008341858    0.7709321319   -0.0000000000
3    
Image 1/11, Energy =   -92.8039612095 (+15.220 kcal/mol)
C       -0.6201895837   -0.8518914746    0.0000000000
N       -0.1311812760    0.2131010188    0.0000000000
H        0.7513708598    0.6387904559    0.0000000000
3    
Image 2/11, Energy =   -92.7730513790 (+34.616 kcal/mol)
C       -0.4303725902   -0.8277082947    0.0000000000
N       -0.2904975555    0.3554338447    0.0000000000
H        0.7208701457    0.4722744514    0.0000000000
3    
Image 3/11, Energy =   -92.7457017415 (+51.778 kcal/mol)
C       -0.2629364042   -0.7693967188    0.0000000000
N       -0.4249316203    0.4137766655    0.0000000000
H        0.6878680246    0.3556200569    0.0000000000
3    
Image 4/11, Energy =   -92.7236064005 (+65.643 kcal/mol)
C       -0.1092497147   -0.6380872944    0.0000000000
N       -0.6387949895    0.4243207148    0.0000000000
H        0.7480447042    0.2137665849    0.0000000000
3    
Image 5/11, Energy =   -92.7510512393 (+48.422 kcal/mol)
C       -0.0332659269   -0.4780054732    0.0000000000
N       -0.8426609136    0.3523929074   -0.0000000000
H        0.8759268417    0.1256125711   -0.0000000000
3    
Image 6/11, Energy =   -92.7910675844 (+23.311 kcal/mol)
C        0.0180481505   -0.3291289780    0.0000000000
N       -0.9915957165    0.2182980108    0.0000000000
H        0.9735475692    0.1108309720    0.0000000000
3    
Image 7/11, Energy =   -92.8247904286 (+2.149 kcal/mol)
C        0.0644802078   -0.0856501798    0.0000000000
N       -1.0659618329   -0.2988837479   -0.0000000000
H        1.0014816298    0.3845339323    0.0000000000
3    
Image 8/11, Energy =   -92.8273048548 (+0.572 kcal/mol)
C        0.0483948549   -0.0305891990    0.0000000000
N       -0.9784412638   -0.5242769031   -0.0000000000
H        0.9300464142    0.5548661036   -0.0000000000
3    
Image 9/11, Energy =   -92.8281406809 (+0.047 kcal/mol)
C        0.0319362812    0.0115111724    0.0000000000
N       -0.8508892480   -0.7214278398   -0.0000000000
H        0.8189529719    0.7099166674    0.0000000000
3    
Image 10/11, Energy =   -92.8282158336 (+0.000 kcal/mol)
C        0.0205094217    0.0225582742    0.0000000000
N       -0.7491564844   -0.8240073309    0.0000000000
H        0.7286470574    0.8014490567    0.0000000000
