3    
Image 0/11, Energy =   -92.8148741520 (+8.372 kcal/mol)
C       -0.7423976055   -0.8166733316    0.0000000000
N        0.0415634250    0.0457411997    0.0000000000
H        0.7008341858    0.7709321319   -0.0000000000
3    
Image 1/11, Energy =   -92.8041097144 (+15.127 kcal/mol)
C       -0.6113858720   -0.8590629283    0.0000000000
N       -0.1327703611    0.2104196533    0.0000000000
H        0.7441562331    0.6486432757    0.0000000000
3    
Image 2/11, Energy =   -92.7742825369 (+33.844 kcal/mol)
C       -0.4040561427   -0.8463541361    0.0000000000
N       -0.2990209987    0.3399486011    0.0000000000
H        0.7030771414    0.5064055384    0.0000000000
3    
Image 3/11, Energy =   -92.7465648591 (+51.237 kcal/mol)
C       -0.2427405582   -0.7803609483    0.0000000000
N       -0.4331425870    0.3988293589    0.0000000000
H        0.6758831452    0.3815315948    0.0000000000
3    
Image 4/11, Energy =   -92.7236064005 (+65.643 kcal/mol)
C       -0.1092497147   -0.6380872944    0.0000000000
N       -0.6387949895    0.4243207148    0.0000000000
H        0.7480447042    0.2137665849    0.0000000000
3    
Image 5/11, Energy =   -92.7572260761 (+44.547 kcal/mol)
C       -0.0524690493   -0.4529238573   -0.0000000000
N       -0.8427273903    0.3939103247   -0.0000000000
H        0.8951964388    0.0590135379   -0.0000000000
3    
Image 6/11, Energy =   -92.8036703281 (+15.403 kcal/mol)
C       -0.0051827574   -0.2693023628    0.0000000000
N       -1.0036563931    0.2932812479    0.0000000000
H        1.0088391527   -0.0239788788   -0.0000000000
3    
Image 7/11, Energy =   -92.8280959970 (+0.075 kcal/mol)
C        0.0271525383    0.0094431487    0.0000000000
N       -1.0748381828   -0.3137107727   -0.0000000000
H        1.0476856489    0.3042676283    0.0000000000
3    
Image 8/11, Energy =   -92.8281556207 (+0.038 kcal/mol)
C        0.0198845490    0.0230795755    0.0000000000
N       -0.9766989598   -0.5368484179   -0.0000000000
H        0.9568144160    0.5137688443   -0.0000000000
3    
Image 9/11, Energy =   -92.8281767849 (+0.025 kcal/mol)
C        0.0158719472    0.0279156789    0.0000000000
N       -0.8420685006   -0.7281067074   -0.0000000000
H        0.8261965584    0.7001910285    0.0000000000
3    
Image 10/11, Energy =   -92.8282158336 (+0.000 kcal/mol)
C        0.0205094217    0.0225582742    0.0000000000
N       -0.7491564844   -0.8240073309    0.0000000000
H        0.7286470574    0.8014490567    0.0000000000
