3    
Image 0/11, Energy =   -92.8148741520 (+8.372 kcal/mol)
C       -0.7423976055   -0.8166733316    0.0000000000
N        0.0415634250    0.0457411997    0.0000000000
H        0.7008341858    0.7709321319   -0.0000000000
3    
Image 1/11, Energy =   -92.8057780973 (+14.080 kcal/mol)
C       -0.5582090843   -0.9029867364   -0.0000000000
N       -0.1334715389    0.1886295985    0.0000000000
H        0.6916806233    0.7143571432   -0.0000000000
3    
Image 2/11, Energy =   -92.7751516170 (+33.298 kcal/mol)
C       -0.3753158911   -0.8634540148    0.0000000000
N       -0.3076422590    0.3259541012    0.0000000000
H        0.6829581501    0.5374999189   -0.0000000000
3    
Image 3/11, Energy =   -92.7465478608 (+51.247 kcal/mol)
C       -0.2427676662   -0.7795521177    0.0000000000
N       -0.4326403624    0.3984817337    0.0000000000
H        0.6754080286    0.3810703893   -0.0000000000
3    
Image 4/11, Energy =   -92.7236064005 (+65.643 kcal/mol)
C       -0.1092497147   -0.6380872944    0.0000000000
N       -0.6387949895    0.4243207148    0.0000000000
H        0.7480447042    0.2137665849    0.0000000000
3    
Image 5/11, Energy =   -92.7589623623 (+43.457 kcal/mol)
C       -0.0435420262   -0.4480554836    0.0000000000
N       -0.8547273497    0.3803410237    0.0000000000
H        0.8982693759    0.0677144652    0.0000000000
3    
Image 6/11, Energy =   -92.8071623103 (+13.211 kcal/mol)
C       -0.0086906635   -0.2485638144   -0.0000000000
N       -1.0048071215    0.3136199752    0.0000000000
H        1.0134977844   -0.0650561555    0.0000000000
3    
Image 7/11, Energy =   -92.8282091025 (+0.004 kcal/mol)
C        0.0303464179   -0.0056506214    0.0000000000
N       -1.1126307535    0.0427223220    0.0000000000
H        1.0822843366   -0.0370716953    0.0000000000
3    
Image 8/11, Energy =   -92.8282158032 (+0.000 kcal/mol)
C        0.0291352301    0.0090185406   -0.0000000000
N       -1.0669747657   -0.3190479322   -0.0000000000
H        1.0378395356    0.3100293969    0.0000000000
3    
Image 9/11, Energy =   -92.8282157715 (+0.000 kcal/mol)
C        0.0269572129    0.0141826930    0.0000000000
N       -0.9793999954   -0.5299405470    0.0000000000
H        0.9524427876    0.5157578592   -0.0000000000
3    
Image 10/11, Energy =   -92.8282158336 (+0.000 kcal/mol)
C        0.0205094217    0.0225582742    0.0000000000
N       -0.7491564844   -0.8240073309    0.0000000000
H        0.7286470574    0.8014490567    0.0000000000
