3    
Image 0/11, Energy =   -92.8148741520 (+8.372 kcal/mol)
C       -0.7423976055   -0.8166733316    0.0000000000
N        0.0415634250    0.0457411997    0.0000000000
H        0.7008341858    0.7709321319   -0.0000000000
3    
Image 1/11, Energy =   -92.8050705666 (+14.524 kcal/mol)
C       -0.5854011382   -0.8813889701   -0.0000000000
N       -0.1330668337    0.1978983821    0.0000000000
H        0.7184679719    0.6834905933   -0.0000000000
3    
Image 2/11, Energy =   -92.7751248649 (+33.315 kcal/mol)
C       -0.3775035797   -0.8622221199    0.0000000000
N       -0.3069599501    0.3266589917    0.0000000000
H        0.6844635299    0.5355631335   -0.0000000000
3    
Image 3/11, Energy =   -92.7466354103 (+51.192 kcal/mol)
C       -0.2403799919   -0.7812615918   -0.0000000000
N       -0.4337271652    0.3975366038    0.0000000000
H        0.6741071571    0.3837249934   -0.0000000000
3    
Image 4/11, Energy =   -92.7236064005 (+65.643 kcal/mol)
C       -0.1092497147   -0.6380872944    0.0000000000
N       -0.6387949895    0.4243207148    0.0000000000
H        0.7480447042    0.2137665849    0.0000000000
3    
Image 5/11, Energy =   -92.7589026025 (+43.495 kcal/mol)
C       -0.0471220033   -0.4475688482   -0.0000000000
N       -0.8513933437    0.3864535402    0.0000000000
H        0.8985153470    0.0611153132   -0.0000000000
3    
Image 6/11, Energy =   -92.8068877975 (+13.384 kcal/mol)
C       -0.0131945235   -0.2492503200    0.0000000000
N       -1.0001122482    0.3222070147   -0.0000000000
H        1.0133067737   -0.0729566894   -0.0000000000
3    
Image 7/11, Energy =   -92.8266962275 (+0.954 kcal/mol)
C        0.0300407301   -0.0686044222    0.0000000000
N       -1.1111747649    0.0339930707    0.0000000000
H        1.0811340356    0.0346113568    0.0000000000
3    
Image 8/11, Energy =   -92.8281761558 (+0.025 kcal/mol)
C        0.0268102939    0.0189649792   -0.0000000000
N       -1.0665903397   -0.3218559237   -0.0000000000
H        1.0397800459    0.3028909497    0.0000000000
3    
Image 9/11, Energy =   -92.8281822019 (+0.021 kcal/mol)
C        0.0223628340    0.0196768953    0.0000000000
N       -0.9771170072   -0.5321108029    0.0000000000
H        0.9547541784    0.5124339129   -0.0000000000
3    
Image 10/11, Energy =   -92.8282158336 (+0.000 kcal/mol)
C        0.0205094217    0.0225582742    0.0000000000
N       -0.7491564844   -0.8240073309    0.0000000000
H        0.7286470574    0.8014490567    0.0000000000
