3    
Image 0/11, Energy =   -92.8148741520 (+8.372 kcal/mol)
C       -0.7423976055   -0.8166733316    0.0000000000
N        0.0415634250    0.0457411997    0.0000000000
H        0.7008341858    0.7709321319   -0.0000000000
3    
Image 1/11, Energy =   -92.8044880509 (+14.889 kcal/mol)
C       -0.6003890380   -0.8682858265    0.0000000000
N       -0.1334719972    0.2050125703    0.0000000000
H        0.7338610352    0.6632732615    0.0000000000
3    
Image 2/11, Energy =   -92.7750311311 (+33.374 kcal/mol)
C       -0.3856809304   -0.8581497281    0.0000000000
N       -0.3041807554    0.3299244805    0.0000000000
H        0.6898616858    0.5282252529    0.0000000000
3    
Image 3/11, Energy =   -92.7466845384 (+51.162 kcal/mol)
C       -0.2379660175   -0.7819311596    0.0000000000
N       -0.4344108066    0.3960464325    0.0000000000
H        0.6723768240    0.3858847324    0.0000000000
3    
Image 4/11, Energy =   -92.7236064005 (+65.643 kcal/mol)
C       -0.1092497147   -0.6380872944    0.0000000000
N       -0.6387949895    0.4243207148    0.0000000000
H        0.7480447042    0.2137665849    0.0000000000
3    
Image 5/11, Energy =   -92.7586658933 (+43.643 kcal/mol)
C       -0.0517493296   -0.4471014604    0.0000000000
N       -0.8455636556    0.3966030846    0.0000000000
H        0.8973129851    0.0504983811   -0.0000000000
3    
Image 6/11, Energy =   -92.8066966259 (+13.504 kcal/mol)
C       -0.0079528138   -0.2506593754    0.0000000000
N       -1.0012375525    0.3259901432   -0.0000000000
H        1.0091903716   -0.0753307626   -0.0000000000
3    
Image 7/11, Energy =   -92.7924370775 (+22.452 kcal/mol)
C        0.0083198405   -0.1098501086    0.0000000000
N       -1.0327779431    0.0038576860   -0.0000000000
H        1.0244581026    0.1059924279    0.0000000000
3    
Image 8/11, Energy =   -92.8280178417 (+0.124 kcal/mol)
C        0.0245924949    0.0309591582    0.0000000000
N       -1.0643183336   -0.3182747712   -0.0000000000
H        1.0397258388    0.2873156183    0.0000000000
3    
Image 9/11, Energy =   -92.8279765999 (+0.150 kcal/mol)
C        0.0218181405    0.0329409057    0.0000000000
N       -0.9759563759   -0.5378487532   -0.0000000000
H        0.9541382407    0.5049078528   -0.0000000000
3    
Image 10/11, Energy =   -92.8282158336 (+0.000 kcal/mol)
C        0.0205094217    0.0225582742    0.0000000000
N       -0.7491564844   -0.8240073309    0.0000000000
H        0.7286470574    0.8014490567    0.0000000000
