3    
Image 0/11, Energy =   -92.8148741520 (+8.372 kcal/mol)
C       -0.7423976055   -0.8166733316    0.0000000000
N        0.0415634250    0.0457411997    0.0000000000
H        0.7008341858    0.7709321319   -0.0000000000
3    
Image 1/11, Energy =   -92.8039488467 (+15.228 kcal/mol)
C       -0.6226957495   -0.8501097468    0.0000000000
N       -0.1304254331    0.2137532668    0.0000000000
H        0.7531211826    0.6363564801    0.0000000000
3    
Image 2/11, Energy =   -92.7725389948 (+34.938 kcal/mol)
C       -0.4433466612   -0.8184267155    0.0000000000
N       -0.2855597907    0.3626214555    0.0000000000
H        0.7289064519    0.4558052606    0.0000000000
3    
Image 3/11, Energy =   -92.7448662121 (+52.303 kcal/mol)
C       -0.2777401287   -0.7594223923    0.0000000000
N       -0.4182004987    0.4261467923    0.0000000000
H        0.6959406274    0.3332756022    0.0000000000
3    
Image 4/11, Energy =   -92.7236064005 (+65.643 kcal/mol)
C       -0.1092497147   -0.6380872944    0.0000000000
N       -0.6387949895    0.4243207148    0.0000000000
H        0.7480447042    0.2137665849    0.0000000000
3    
Image 5/11, Energy =   -92.7455516125 (+51.873 kcal/mol)
C       -0.0110523246   -0.5003170762    0.0000000000
N       -0.8392833709    0.3189320627    0.0000000000
H        0.8503356984    0.1813850187   -0.0000000000
3    
Image 6/11, Energy =   -92.7804911102 (+29.948 kcal/mol)
C        0.0425808577   -0.3691594413   -0.0000000000
N       -0.9742743819    0.1699582981    0.0000000000
H        0.9316935267    0.1992011462    0.0000000000
3    
Image 7/11, Energy =   -92.8174171091 (+6.776 kcal/mol)
C        0.0948968855   -0.1560483750    0.0000000000
N       -1.0432496247   -0.2868362268   -0.0000000000
H        0.9483527442    0.4428846066   -0.0000000000
3    
Image 8/11, Energy =   -92.8250172658 (+2.007 kcal/mol)
C        0.0772275271   -0.0696600705   -0.0000000000
N       -0.9752201483   -0.5174796797   -0.0000000000
H        0.8979926265    0.5871397513   -0.0000000000
3    
Image 9/11, Energy =   -92.8278145512 (+0.252 kcal/mol)
C        0.0453132032   -0.0073735591    0.0000000000
N       -0.8563552229   -0.7119839296   -0.0000000000
H        0.8110420248    0.7193574888    0.0000000000
3    
Image 10/11, Energy =   -92.8282158336 (+0.000 kcal/mol)
C        0.0205094217    0.0225582742    0.0000000000
N       -0.7491564844   -0.8240073309    0.0000000000
H        0.7286470574    0.8014490567    0.0000000000
