3    
Image 0/11, Energy =   -92.8148741520 (+8.372 kcal/mol)
C       -0.7423976055   -0.8166733316    0.0000000000
N        0.0415634250    0.0457411997    0.0000000000
H        0.7008341858    0.7709321319   -0.0000000000
3    
Image 1/11, Energy =   -92.8039487071 (+15.228 kcal/mol)
C       -0.6231114761   -0.8498617352    0.0000000000
N       -0.1302602549    0.2138810903    0.0000000000
H        0.7533717310    0.6359806449   -0.0000000000
3    
Image 2/11, Energy =   -92.7724338121 (+35.004 kcal/mol)
C       -0.4464822122   -0.8162014191    0.0000000000
N       -0.2842995159    0.3642394109    0.0000000000
H        0.7307817281    0.4519620085    0.0000000000
3    
Image 3/11, Energy =   -92.7445813439 (+52.481 kcal/mol)
C       -0.2820299353   -0.7561995071    0.0000000000
N       -0.4162337296    0.4299476260    0.0000000000
H        0.6982636649    0.3262518829    0.0000000000
3    
Image 4/11, Energy =   -92.7236064005 (+65.643 kcal/mol)
C       -0.1092497147   -0.6380872944    0.0000000000
N       -0.6387949895    0.4243207148    0.0000000000
H        0.7480447042    0.2137665849    0.0000000000
3    
Image 5/11, Energy =   -92.7437936981 (+52.976 kcal/mol)
C       -0.0043240564   -0.5072004375    0.0000000000
N       -0.8370960582    0.3088865515    0.0000000000
H        0.8414201181    0.1983138913    0.0000000000
3    
Image 6/11, Energy =   -92.7771302032 (+32.057 kcal/mol)
C        0.0510992904   -0.3815842231   -0.0000000000
N       -0.9689728475    0.1576365717    0.0000000000
H        0.9178735593    0.2239476538    0.0000000000
3    
Image 7/11, Energy =   -92.8144005554 (+8.669 kcal/mol)
C        0.1012221576   -0.1771634489    0.0000000000
N       -1.0336501369   -0.2833785735   -0.0000000000
H        0.9324279844    0.4605420272   -0.0000000000
3    
Image 8/11, Energy =   -92.8239615670 (+2.670 kcal/mol)
C        0.0875527670   -0.0802098886   -0.0000000000
N       -0.9748778410   -0.5163326308   -0.0000000000
H        0.8873250793    0.5965425203   -0.0000000000
3    
Image 9/11, Energy =   -92.8271232790 (+0.686 kcal/mol)
C        0.0449779644   -0.0174383590    0.0000000000
N       -0.8538593648   -0.7058788384   -0.0000000000
H        0.8088814055    0.7233171974    0.0000000000
3    
Image 10/11, Energy =   -92.8282158336 (+0.000 kcal/mol)
C        0.0205094217    0.0225582742    0.0000000000
N       -0.7491564844   -0.8240073309    0.0000000000
H        0.7286470574    0.8014490567    0.0000000000
