3    
Image 0/11, Energy =   -92.8148741520 (+8.372 kcal/mol)
C       -0.7423976055   -0.8166733316    0.0000000000
N        0.0415634250    0.0457411997    0.0000000000
H        0.7008341858    0.7709321319   -0.0000000000
3    
Image 1/11, Energy =   -92.8040506405 (+15.164 kcal/mol)
C       -0.6138191439   -0.8570788011    0.0000000000
N       -0.1324359248    0.2113723772    0.0000000000
H        0.7462550687    0.6457064244    0.0000000000
3    
Image 2/11, Energy =   -92.7740331188 (+34.000 kcal/mol)
C       -0.4092846895   -0.8428098161    0.0000000000
N       -0.2975613937    0.3430589004    0.0000000000
H        0.7068460832    0.4997509187    0.0000000000
3    
Image 3/11, Energy =   -92.7464879418 (+51.285 kcal/mol)
C       -0.2451913786   -0.7793590605    0.0000000000
N       -0.4323834235    0.4003459317    0.0000000000
H        0.6775748021    0.3790131340    0.0000000000
3    
Image 4/11, Energy =   -92.7236064005 (+65.643 kcal/mol)
C       -0.1092497147   -0.6380872944    0.0000000000
N       -0.6387949895    0.4243207148    0.0000000000
H        0.7480447042    0.2137665849    0.0000000000
3    
Image 5/11, Energy =   -92.7564898663 (+45.009 kcal/mol)
C       -0.0479390103   -0.4595153029   -0.0000000000
N       -0.8459526297    0.3938381784   -0.0000000000
H        0.8938916394    0.0656771298   -0.0000000000
3    
Image 6/11, Energy =   -92.8019457241 (+16.485 kcal/mol)
C        0.0000196868   -0.2803111222    0.0000000000
N       -1.0071843709    0.2845260072    0.0000000000
H        1.0071646867   -0.0042148788    0.0000000000
3    
Image 7/11, Energy =   -92.8279678287 (+0.156 kcal/mol)
C        0.0268849051   -0.0020844885    0.0000000000
N       -1.0751569715   -0.3122033977   -0.0000000000
H        1.0482720709    0.3142878905    0.0000000000
3    
Image 8/11, Energy =   -92.8276024900 (+0.385 kcal/mol)
C        0.0166838865    0.0140594340    0.0000000000
N       -0.9741814650   -0.5328642527   -0.0000000000
H        0.9574975838    0.5188048205   -0.0000000000
3    
Image 9/11, Energy =   -92.8281315461 (+0.053 kcal/mol)
C        0.0151430821    0.0254573372    0.0000000000
N       -0.8413054118   -0.7268769388   -0.0000000000
H        0.8261623346    0.7014196016    0.0000000000
3    
Image 10/11, Energy =   -92.8282158336 (+0.000 kcal/mol)
C        0.0205094217    0.0225582742    0.0000000000
N       -0.7491564844   -0.8240073309    0.0000000000
H        0.7286470574    0.8014490567    0.0000000000
