3    
Image 0/11, Energy =   -92.8148741520 (+8.372 kcal/mol)
C       -0.7423976055   -0.8166733316    0.0000000000
N        0.0415634250    0.0457411997    0.0000000000
H        0.7008341858    0.7709321319   -0.0000000000
3    
Image 1/11, Energy =   -92.8045024079 (+14.880 kcal/mol)
C       -0.6001655252   -0.8687384228    0.0000000000
N       -0.1333252859    0.2051191523   -0.0000000000
H        0.7334908111    0.6636192758    0.0000000000
3    
Image 2/11, Energy =   -92.7750346900 (+33.372 kcal/mol)
C       -0.3854856415   -0.8582278089   -0.0000000000
N       -0.3042419690    0.3298144127   -0.0000000000
H        0.6897276104    0.5284134015    0.0000000000
3    
Image 3/11, Energy =   -92.7466845973 (+51.162 kcal/mol)
C       -0.2380102554   -0.7819981090    0.0000000000
N       -0.4344221671    0.3961565324    0.0000000000
H        0.6724324225    0.3858415819    0.0000000000
3    
Image 4/11, Energy =   -92.7236064005 (+65.643 kcal/mol)
C       -0.1092497147   -0.6380872944    0.0000000000
N       -0.6387949895    0.4243207148    0.0000000000
H        0.7480447042    0.2137665849    0.0000000000
3    
Image 5/11, Energy =   -92.7586729006 (+43.639 kcal/mol)
C       -0.0515341606   -0.4473207650   -0.0000000000
N       -0.8458601678    0.3965408037   -0.0000000000
H        0.8973943284    0.0507799666    0.0000000000
3    
Image 6/11, Energy =   -92.8067908028 (+13.444 kcal/mol)
C       -0.0091980207   -0.2502574563   -0.0000000000
N       -1.0006752714    0.3265046637    0.0000000000
H        1.0098732974   -0.0762472021   -0.0000000000
3    
Image 7/11, Energy =   -92.8156242753 (+7.901 kcal/mol)
C        0.0324659439   -0.1108912987    0.0000000000
N       -1.0577804634    0.0063203249    0.0000000000
H        1.0253145195    0.1045709790    0.0000000000
3    
Image 8/11, Energy =   -92.8280273348 (+0.118 kcal/mol)
C        0.0244660716    0.0305932436    0.0000000000
N       -1.0644734825   -0.3182130876   -0.0000000000
H        1.0400074109    0.2876198493   -0.0000000000
3    
Image 9/11, Energy =   -92.8280579663 (+0.099 kcal/mol)
C        0.0206447383    0.0319716922   -0.0000000000
N       -0.9751260196   -0.5372482046   -0.0000000000
H        0.9544812865    0.5052765177    0.0000000000
3    
Image 10/11, Energy =   -92.8282158336 (+0.000 kcal/mol)
C        0.0205094217    0.0225582742    0.0000000000
N       -0.7491564844   -0.8240073309    0.0000000000
H        0.7286470574    0.8014490567    0.0000000000
