6    
Image 0/11, Energy =  -169.0522692293 (+0.249 kcal/mol)
C       -0.3689809232   -1.4576547332   -1.3858823910
C       -0.1536196575   -0.5941379364   -0.5627748996
H        0.0498937432    0.2058682499    0.1931202386
H       -0.5557149982   -2.2230003307   -2.1042277546
C        0.4068909404    1.6172446315    1.5286738868
N        0.6215308952    2.4516801189    2.3310909145
6    
Image 1/11, Energy =  -169.0526666383 (+0.000 kcal/mol)
C       -0.3425133388   -1.4529075452   -1.3555580496
C       -0.2704321170   -0.5194167266   -0.6066558234
H       -0.1479722241    0.3014917574    0.0948473165
H       -0.3886046735   -2.2778692339   -2.0021167514
C        0.3627350921    1.6465482498    1.5008110382
N        0.7867872611    2.3021534982    2.3686722657
6    
Image 2/11, Energy =  -169.0504679069 (+1.380 kcal/mol)
C       -0.3132375600   -1.4366318573   -1.3158203402
C       -0.3855787355   -0.4457266424   -0.6480045454
H       -0.3434315492    0.4111499734    0.0075208268
H       -0.2184910012   -2.3124585415   -1.8816066188
C        0.3316069428    1.6621914301    1.4727068136
N        0.9291319028    2.1214756371    2.3652038611
6    
Image 3/11, Energy =  -169.0470600884 (+3.518 kcal/mol)
C       -0.2802909371   -1.4030794882   -1.2611702616
C       -0.4955657100   -0.3746534746   -0.6883482889
H       -0.5419039569    0.5145197100   -0.0886756486
H       -0.0477016967   -2.3091104720   -1.7301758159
C        0.3222406876    1.6520898990    1.4440624322
N        1.0432216129    1.9202338247    2.3243075806
6    
Image 4/11, Energy =  -169.0424166312 (+6.432 kcal/mol)
C       -0.2458560989   -1.3514934910   -1.1916594967
C       -0.5971319671   -0.3073726744   -0.7266883371
H       -0.7445514228    0.6059341492   -0.1967378817
H        0.1200908920   -2.2635120148   -1.5503452263
C        0.3365121195    1.6003101250    1.4071640048
N        1.1309364772    1.7161339042    2.2582669355
6    
Image 5/11, Energy =  -169.0364283528 (+10.190 kcal/mol)
C       -0.2139721600   -1.2826089888   -1.1122644486
C       -0.6822188178   -0.2434549943   -0.7548813219
H       -0.9442345815    0.6820742575   -0.3138753043
H        0.2778629944   -2.1747329977   -1.3479715546
C        0.3677596506    1.4953930666    1.3507131026
N        1.1948029142    1.5233296545    2.1782795255
6    
Image 6/11, Energy =  -169.0279427418 (+15.514 kcal/mol)
C       -0.1955840208   -1.2044689970   -1.0389879093
C       -0.7330801783   -0.1772438925   -0.7535899296
H       -1.1263052325    0.7406975125   -0.4301258347
H        0.4164261139   -2.0460557082   -1.1331576489
C        0.4059541703    1.3298784921    1.2637003570
N        1.2325891473    1.3571925902    2.0921609644
6    
Image 7/11, Energy =  -169.0120476485 (+25.489 kcal/mol)
C       -0.2104880487   -1.1419807625   -1.0051711259
C       -0.7114086587   -0.0965502288   -0.6825424483
H       -1.2631378593    0.7738196482   -0.5252990678
H        0.5183771116   -1.8901922295   -0.9310413557
C        0.4406639089    1.1145737434    1.1448081126
N        1.2259935462    1.2403298261    1.9992458842
6    
Image 8/11, Energy =  -168.9962095793 (+35.427 kcal/mol)
C       -0.2521019216   -1.1071226275   -1.0124975309
C       -0.6147170212    0.0007661401   -0.5348183990
H       -1.3285274040    0.7771610090   -0.5801573270
H        0.5733092210   -1.7452323601   -0.7799517125
C        0.4535629690    0.9029222431    1.0129923891
N        1.1684741569    1.1715055918    1.8944325795
6    
Image 9/11, Energy =  -169.0185482310 (+21.410 kcal/mol)
C       -0.2719627398   -1.0757315516   -1.0098526822
C       -0.5069209460    0.0856170793   -0.3812101237
H       -1.3135117768    0.7752543906   -0.5708757659
H        0.5941012364   -1.6770995739   -0.7120045114
C        0.4053044921    0.7756592141    0.8955908008
N        1.0929897341    1.1163004375    1.7783522805
6    
Image 10/11, Energy =  -169.0437609544 (+5.588 kcal/mol)
C       -0.2721093513   -1.0384613434   -0.9953339881
C       -0.4664498990    0.1336943575   -0.3047184047
H       -1.3026915424    0.8069996864   -0.5503883163
H        0.6404231461   -1.5232274468   -0.5526624607
C        0.3524169885    0.6272448767    0.7650856657
N        1.0484106581    0.9937498643    1.6380174988
