6    
Image 0/11, Energy =  -169.0522692293 (+0.206 kcal/mol)
C       -0.3689809232   -1.4576547332   -1.3858823910
C       -0.1536196575   -0.5941379364   -0.5627748996
H        0.0498937432    0.2058682499    0.1931202386
H       -0.5557149982   -2.2230003307   -2.1042277546
C        0.4068909404    1.6172446315    1.5286738868
N        0.6215308952    2.4516801189    2.3310909145
6    
Image 1/11, Energy =  -169.0525981402 (+0.000 kcal/mol)
C       -0.3505038205   -1.4476150406   -1.3688587453
C       -0.2788398666   -0.5275462728   -0.6017255121
H       -0.1343450144    0.2745585388    0.1146283522
H       -0.3969217958   -2.2665060560   -2.0231328232
C        0.4233166224    1.5934155919    1.5340886312
N        0.7372938748    2.3736932384    2.3450000943
6    
Image 2/11, Energy =  -169.0500490002 (+1.600 kcal/mol)
C       -0.3262271859   -1.4328610941   -1.3396193003
C       -0.3996561686   -0.4614799235   -0.6426427518
H       -0.3220361164    0.3686560151    0.0415399354
H       -0.2354758364   -2.2976869334   -1.9232614539
C        0.4332444321    1.5596506781    1.5146638799
N        0.8501508749    2.2637212573    2.3493196894
6    
Image 3/11, Energy =  -169.0463434897 (+3.925 kcal/mol)
C       -0.2980290971   -1.4070557980   -1.2930401755
C       -0.5099254665   -0.3982505960   -0.6837987845
H       -0.5201611919    0.4629186617   -0.0460271225
H       -0.0712708684   -2.2982803578   -1.7923413329
C        0.4416779376    1.5241546282    1.4742276635
N        0.9577086855    2.1165134616    2.3409797514
6    
Image 4/11, Energy =  -169.0417744358 (+6.792 kcal/mol)
C       -0.2656771692   -1.3669717486   -1.2267602508
C       -0.6068675415   -0.3386602563   -0.7181326608
H       -0.7235854404    0.5539404683   -0.1526734046
H        0.0912890778   -2.2630634447   -1.6300940463
C        0.4490350543    1.4879986413    1.4144528414
N        1.0558060181    1.9267563395    2.3132075209
6    
Image 5/11, Energy =  -169.0365022494 (+10.100 kcal/mol)
C       -0.2310382560   -1.3078260915   -1.1433728072
C       -0.6859800927   -0.2791607184   -0.7417843154
H       -0.9199392408    0.6361973579   -0.2696773952
H        0.2456232958   -2.1901743497   -1.4363231611
C        0.4572339755    1.4460568037    1.3346635505
N        1.1341003172    1.6949069974    2.2564941282
6    
Image 6/11, Energy =  -169.0297139289 (+14.360 kcal/mol)
C       -0.2019151470   -1.2300870931   -1.0522521083
C       -0.7352314343   -0.2107974504   -0.7446939669
H       -1.0967740076    0.7086120952   -0.3873947979
H        0.3863610349   -2.0786657911   -1.2130398419
C        0.4663783623    1.3706877346    1.2365012164
N        1.1811811910    1.4402505035    2.1608794989
6    
Image 7/11, Energy =  -169.0166656761 (+22.548 kcal/mol)
C       -0.1986712534   -1.1562026727   -0.9890134728
C       -0.7215290559   -0.1217911201   -0.6903770952
H       -1.2388294373    0.7604479465   -0.4885909134
H        0.4996348576   -1.9332868723   -0.9901612227
C        0.4711677684    1.2136936879    1.1180286861
N        1.1882271201    1.2371390285    2.0401140181
6    
Image 8/11, Energy =  -168.9963292734 (+35.309 kcal/mol)
C       -0.2353852538   -1.1080362745   -0.9796414512
C       -0.6242564533   -0.0075200770   -0.5514363736
H       -1.3235264660    0.7777549537   -0.5584172654
H        0.5716141114   -1.7790535092   -0.8106879995
C        0.4587028961    0.9862688934    0.9870025829
N        1.1528511656    1.1305860105    1.9131805065
6    
Image 9/11, Energy =  -169.0130831049 (+24.796 kcal/mol)
C       -0.2647309241   -1.0811790128   -0.9914707006
C       -0.5123918503    0.0809429519   -0.3976319583
H       -1.3116386282    0.7769772080   -0.5598860136
H        0.5915402668   -1.7038492820   -0.7370807109
C        0.4107855579    0.8267903661    0.8872044960
N        1.0864355778    1.1003177654    1.7988648859
6    
Image 10/11, Energy =  -169.0437609544 (+5.545 kcal/mol)
C       -0.2721093513   -1.0384613434   -0.9953339881
C       -0.4664498990    0.1336943575   -0.3047184047
H       -1.3026915424    0.8069996864   -0.5503883163
H        0.6404231461   -1.5232274468   -0.5526624607
C        0.3524169885    0.6272448767    0.7650856657
N        1.0484106581    0.9937498643    1.6380174988
