6    
Image 0/11, Energy =  -169.0522692293 (+0.316 kcal/mol)
C       -0.3689809232   -1.4576547332   -1.3858823910
C       -0.1536196575   -0.5941379364   -0.5627748996
H        0.0498937432    0.2058682499    0.1931202386
H       -0.5557149982   -2.2230003307   -2.1042277546
C        0.4068909404    1.6172446315    1.5286738868
N        0.6215308952    2.4516801189    2.3310909145
6    
Image 1/11, Energy =  -169.0527721646 (+0.000 kcal/mol)
C       -0.3517272937   -1.4531250353   -1.3635018523
C       -0.2745662144   -0.5263875527   -0.6066043727
H       -0.1406201621    0.2817265324    0.1087673783
H       -0.3911024174   -2.2711787211   -2.0192165238
C        0.3979968877    1.6199857497    1.5207188887
N        0.7600191996    2.3489790270    2.3598364782
6    
Image 2/11, Energy =  -169.0506073750 (+1.358 kcal/mol)
C       -0.3293690624   -1.4395438314   -1.3350453006
C       -0.3937875742   -0.4604186403   -0.6491401939
H       -0.3314599426    0.3762772311    0.0312242478
H       -0.2251208308   -2.3050043046   -1.9146232397
C        0.3925157442    1.6104935532    1.5000189851
N        0.8872216652    2.2181959915    2.3675654992
6    
Image 3/11, Energy =  -169.0472339996 (+3.475 kcal/mol)
C       -0.2997631298   -1.4126053421   -1.2905305907
C       -0.5056274431   -0.3982691689   -0.6872429210
H       -0.5255848832    0.4713637179   -0.0580238759
H       -0.0608362837   -2.3052652701   -1.7797230002
C        0.3944335446    1.5902412291    1.4634476112
N        0.9973781944    2.0545348337    2.3520727754
6    
Image 4/11, Energy =  -169.0428574965 (+6.222 kcal/mol)
C       -0.2669520272   -1.3687946327   -1.2264847034
C       -0.6027753920   -0.3378740927   -0.7228062008
H       -0.7190865927    0.5623379805   -0.1601634384
H        0.0983679287   -2.2702814366   -1.6126151089
C        0.4028090576    1.5578670757    1.4100459306
N        1.0876370248    1.8567451052    2.3120235202
6    
Image 5/11, Energy =  -169.0373802170 (+9.659 kcal/mol)
C       -0.2336321360   -1.3073753250   -1.1468429254
C       -0.6815232069   -0.2747888655   -0.7482340213
H       -0.9124618169    0.6450114300   -0.2738764075
H        0.2516420992   -2.1954207328   -1.4140179041
C        0.4211924940    1.4967162423    1.3405433249
N        1.1547825658    1.6358572496    2.2424279335
6    
Image 6/11, Energy =  -169.0298242650 (+14.400 kcal/mol)
C       -0.2075204976   -1.2311214674   -1.0641621293
C       -0.7296740991   -0.2045869950   -0.7490971517
H       -1.0941865424    0.7138924691   -0.3883912434
H        0.3907376294   -2.0790604514   -1.1952777696
C        0.4461853833    1.3771836719    1.2487525399
N        1.1944581260    1.4236927708    2.1481757541
6    
Image 7/11, Energy =  -169.0150104730 (+23.696 kcal/mol)
C       -0.2096291908   -1.1565300705   -1.0042186314
C       -0.7182169573   -0.1137262381   -0.6919998862
H       -1.2496418660    0.7613588839   -0.4974225270
H        0.5079626452   -1.9164729909   -0.9684658119
C        0.4679525054    1.1755384886    1.1273973923
N        1.2015728633    1.2498319242    2.0347094636
6    
Image 8/11, Energy =  -168.9960063003 (+35.621 kcal/mol)
C       -0.2522426411   -1.1044913584   -0.9932958128
C       -0.6180823916    0.0153385378   -0.5378338800
H       -1.3527571255    0.7756398264   -0.5906843008
H        0.5907088008   -1.7194172840   -0.7494787605
C        0.4680797504    0.9135185603    0.9787044573
N        1.1642936070    1.1194117143    1.8925882960
6    
Image 9/11, Energy =  -169.0149786083 (+23.716 kcal/mol)
C       -0.2713473344   -1.0809988020   -0.9996473051
C       -0.5187591491    0.0881091899   -0.4010253174
H       -1.3329095785    0.7741828605   -0.5769922290
H        0.6038937580   -1.6720414065   -0.7032439711
C        0.4195111469    0.7976272083    0.8880195699
N        1.0996111569    1.0931209458    1.7928892511
6    
Image 10/11, Energy =  -169.0437609544 (+5.655 kcal/mol)
C       -0.2721093513   -1.0384613434   -0.9953339881
C       -0.4664498990    0.1336943575   -0.3047184047
H       -1.3026915424    0.8069996864   -0.5503883163
H        0.6404231461   -1.5232274468   -0.5526624607
C        0.3524169885    0.6272448767    0.7650856657
N        1.0484106581    0.9937498643    1.6380174988
