6    
Image 0/11, Energy =  -169.0522692293 (+0.115 kcal/mol)
C       -0.3689809232   -1.4576547332   -1.3858823910
C       -0.1536196575   -0.5941379364   -0.5627748996
H        0.0498937432    0.2058682499    0.1931202386
H       -0.5557149982   -2.2230003307   -2.1042277546
C        0.4068909404    1.6172446315    1.5286738868
N        0.6215308952    2.4516801189    2.3310909145
6    
Image 1/11, Energy =  -169.0524519451 (+0.000 kcal/mol)
C       -0.3503757158   -1.4493446847   -1.3688322978
C       -0.2768046548   -0.5251477233   -0.6064098562
H       -0.1339519574    0.2751443426    0.1215848630
H       -0.4012271427   -2.2652365341   -2.0257444166
C        0.4366573176    1.5800556824    1.5413765597
N        0.7257021531    2.3845289163    2.3380251452
6    
Image 2/11, Energy =  -169.0496357972 (+1.767 kcal/mol)
C       -0.3291237870   -1.4341838505   -1.3368399330
C       -0.3952168591   -0.4581063666   -0.6459658441
H       -0.3203456679    0.3642044894    0.0545124181
H       -0.2405162620   -2.2916503396   -1.9305616586
C        0.4573726903    1.5334215805    1.5221449302
N        0.8278298855    2.2863144867    2.3367100867
6    
Image 3/11, Energy =  -169.0457028915 (+4.235 kcal/mol)
C       -0.2973249366   -1.4105420474   -1.2852171926
C       -0.5082106140   -0.3940884477   -0.6880646918
H       -0.5164732372    0.4612073862   -0.0366127609
H       -0.0783104410   -2.2916482933   -1.8019366838
C        0.4659737768    1.4901315162    1.4814286731
N        0.9343454512    2.1449398853    2.3304026559
6    
Image 4/11, Energy =  -169.0409807887 (+7.198 kcal/mol)
C       -0.2574991922   -1.3653549589   -1.2190927418
C       -0.6119026654   -0.3396954644   -0.7219997668
H       -0.7278128765    0.5536205287   -0.1449343978
H        0.0853417816   -2.2592687443   -1.6405152109
C        0.4749297565    1.4512331547    1.4182576400
N        1.0369431947    1.9594654836    2.3082844771
6    
Image 5/11, Energy =  -169.0358557421 (+10.414 kcal/mol)
C       -0.2169974266   -1.3055169821   -1.1354121752
C       -0.6943324025   -0.2787858454   -0.7418342455
H       -0.9266745244    0.6387876318   -0.2649837970
H        0.2398319455   -2.1929049609   -1.4489455803
C        0.4759177530    1.4167359688    1.3323370945
N        1.1222546539    1.7216841874    2.2588387030
6    
Image 6/11, Energy =  -169.0294723879 (+14.420 kcal/mol)
C       -0.1902025776   -1.2285731363   -1.0398358870
C       -0.7431199354   -0.2117863204   -0.7403530594
H       -1.1046224296    0.7157707381   -0.3877565830
H        0.3861353696   -2.0852246627   -1.2280376564
C        0.4770585563    1.3569584920    1.2302511614
N        1.1747510157    1.4528548882    2.1657320240
6    
Image 7/11, Energy =  -169.0170562206 (+22.211 kcal/mol)
C       -0.1924617951   -1.1534216328   -0.9757454606
C       -0.7283871074   -0.1249111804   -0.6834730870
H       -1.2432371245    0.7700058428   -0.4934017997
H        0.5060333546   -1.9386278314   -0.9957650063
C        0.4740626872    1.2252873183    1.1093842727
N        1.1839899846    1.2216674813    2.0390010817
6    
Image 8/11, Energy =  -168.9967399434 (+34.960 kcal/mol)
C       -0.2291214862   -1.1125551510   -0.9746753909
C       -0.6285979876   -0.0149386429   -0.5506970624
H       -1.3104274641    0.7789868281   -0.5516105618
H        0.5653273319   -1.8006566475   -0.8325839336
C        0.4535048236    1.0246842441    0.9888722786
N        1.1493147823    1.1244793664    1.9206946704
6    
Image 9/11, Energy =  -169.0148278167 (+23.609 kcal/mol)
C       -0.2674191746   -1.0793192169   -0.9903389493
C       -0.5041822888    0.0878642448   -0.3841073142
H       -1.3119233536    0.7778796776   -0.5580152696
H        0.5961529209   -1.7110827852   -0.7410991416
C        0.4055296829    0.8320703468    0.8782192260
N        1.0818422132    1.0925877294    1.7953414478
6    
Image 10/11, Energy =  -169.0437609544 (+5.454 kcal/mol)
C       -0.2721093513   -1.0384613434   -0.9953339881
C       -0.4664498990    0.1336943575   -0.3047184047
H       -1.3026915424    0.8069996864   -0.5503883163
H        0.6404231461   -1.5232274468   -0.5526624607
C        0.3524169885    0.6272448767    0.7650856657
N        1.0484106581    0.9937498643    1.6380174988
