6    
Image 0/11, Energy =  -169.0522692293 (+0.156 kcal/mol)
C       -0.3689809232   -1.4576547332   -1.3858823910
C       -0.1536196575   -0.5941379364   -0.5627748996
H        0.0498937432    0.2058682499    0.1931202386
H       -0.5557149982   -2.2230003307   -2.1042277546
C        0.4068909404    1.6172446315    1.5286738868
N        0.6215308952    2.4516801189    2.3310909145
6    
Image 1/11, Energy =  -169.0525184096 (+0.000 kcal/mol)
C       -0.3496781536   -1.4462827020   -1.3692460731
C       -0.2793036868   -0.5282188431   -0.6026745011
H       -0.1330888058    0.2745999609    0.1170975301
H       -0.3993178600   -2.2660019150   -2.0244068251
C        0.4307596387    1.5865375331    1.5388789234
N        0.7306288675    2.3793659656    2.3403509429
6    
Image 2/11, Energy =  -169.0498369400 (+1.683 kcal/mol)
C       -0.3262706196   -1.4320497927   -1.3391323359
C       -0.3992607012   -0.4613847765   -0.6426411219
H       -0.3200152029    0.3668506019    0.0467314256
H       -0.2386577479   -2.2946801557   -1.9266178951
C        0.4461828812    1.5456378164    1.5195536052
N        0.8380213900    2.2756263064    2.3421063212
6    
Image 3/11, Energy =  -169.0460276925 (+4.073 kcal/mol)
C       -0.2973090682   -1.4079966890   -1.2899167368
C       -0.5097981694   -0.3961616347   -0.6853505345
H       -0.5182429223    0.4618735718   -0.0409347716
H       -0.0749108768   -2.2956669264   -1.7974229466
C        0.4555729994    1.5060771114    1.4787704480
N        0.9446880365    2.1318745665    2.3348545412
6    
Image 4/11, Energy =  -169.0413677704 (+6.997 kcal/mol)
C       -0.2628541336   -1.3649513368   -1.2231164440
C       -0.6085934581   -0.3395162121   -0.7192430197
H       -0.7258875375    0.5535422919   -0.1491278067
H        0.0887441898   -2.2618337797   -1.6358632982
C        0.4634508205    1.4681901635    1.4171851015
N        1.0451401177    1.9445688727    2.3101654667
6    
Image 5/11, Energy =  -169.0361675618 (+10.260 kcal/mol)
C       -0.2254725053   -1.3064631271   -1.1397174897
C       -0.6888911254   -0.2796675414   -0.7409651889
H       -0.9228960757    0.6351390271   -0.2683337953
H        0.2421287981   -2.1894820450   -1.4426828626
C        0.4682014288    1.4303936794    1.3343956356
N        1.1269294784    1.7100800064    2.2573037004
6    
Image 6/11, Energy =  -169.0296009851 (+14.381 kcal/mol)
C       -0.1961253066   -1.2297722275   -1.0457750816
C       -0.7390291268   -0.2109485315   -0.7425885261
H       -1.0991522096    0.7084529647   -0.3885048076
H        0.3844115561   -2.0787683259   -1.2200177143
C        0.4727051628    1.3644641169    1.2337659320
N        1.1771899233    1.4465720020    2.1631201975
6    
Image 7/11, Energy =  -169.0168177941 (+22.402 kcal/mol)
C       -0.1932545207   -1.1570826205   -0.9823533580
C       -0.7265063927   -0.1206728934   -0.6868925729
H       -1.2383332678    0.7610878947   -0.4912660831
H        0.4995725361   -1.9335707339   -0.9932087209
C        0.4727714040    1.2210558399    1.1138840564
N        1.1857502406    1.2291825110    2.0398366790
6    
Image 8/11, Energy =  -168.9965747317 (+35.105 kcal/mol)
C       -0.2316450401   -1.1083779003   -0.9756043962
C       -0.6253951250   -0.0145584324   -0.5527863664
H       -1.3148411915    0.7769898599   -0.5531710210
H        0.5657451791   -1.7907829126   -0.8246490843
C        0.4561833075    1.0077468662    0.9891896567
N        1.1499528698    1.1289825162    1.9170212111
6    
Image 9/11, Energy =  -169.0136710678 (+24.377 kcal/mol)
C       -0.2643583942   -1.0820270396   -0.9901262800
C       -0.5104923925    0.0849453584   -0.3920073515
H       -1.3110122629    0.7798930112   -0.5583911978
H        0.5941614148   -1.7090091196   -0.7397042993
C        0.4075431944    0.8299115269    0.8826521766
N        1.0841584405    1.0962862594    1.7975769506
6    
Image 10/11, Energy =  -169.0437609544 (+5.495 kcal/mol)
C       -0.2721093513   -1.0384613434   -0.9953339881
C       -0.4664498990    0.1336943575   -0.3047184047
H       -1.3026915424    0.8069996864   -0.5503883163
H        0.6404231461   -1.5232274468   -0.5526624607
C        0.3524169885    0.6272448767    0.7650856657
N        1.0484106581    0.9937498643    1.6380174988
