6    
Image 0/11, Energy =  -169.0522692293 (+0.230 kcal/mol)
C       -0.3689809232   -1.4576547332   -1.3858823910
C       -0.1536196575   -0.5941379364   -0.5627748996
H        0.0498937432    0.2058682499    0.1931202386
H       -0.5557149982   -2.2230003307   -2.1042277546
C        0.4068909404    1.6172446315    1.5286738868
N        0.6215308952    2.4516801189    2.3310909145
6    
Image 1/11, Energy =  -169.0526353223 (+0.000 kcal/mol)
C       -0.3512307695   -1.4486065014   -1.3676427240
C       -0.2778280376   -0.5271598153   -0.6028833774
H       -0.1355076878    0.2750098140    0.1139884019
H       -0.3956889144   -2.2667235724   -2.0225220251
C        0.4196507158    1.5975821344    1.5320404501
N        0.7406046933    2.3698979405    2.3470192714
6    
Image 2/11, Energy =  -169.0501547216 (+1.557 kcal/mol)
C       -0.3270828973   -1.4340886564   -1.3391652844
C       -0.3986360083   -0.4610489623   -0.6438118826
H       -0.3235559381    0.3693421922    0.0398869285
H       -0.2337185270   -2.2986949310   -1.9218039525
C        0.4271251618    1.5672380776    1.5125207529
N        0.8558682086    2.2572522795    2.3523734366
6    
Image 3/11, Energy =  -169.0464899857 (+3.856 kcal/mol)
C       -0.2986866879   -1.4068522384   -1.2935312763
C       -0.5092852217   -0.3996222816   -0.6837897737
H       -0.5211358690    0.4637857953   -0.0483273890
H       -0.0695562511   -2.2991185820   -1.7900912220
C        0.4350008439    1.5338880666    1.4728345674
N        0.9636631850    2.1079192398    2.3429050931
6    
Image 4/11, Energy =  -169.0419582773 (+6.700 kcal/mol)
C       -0.2665944991   -1.3672872461   -1.2276145200
C       -0.6059533786   -0.3391394354   -0.7185640700
H       -0.7225334953    0.5546166980   -0.1539371331
H        0.0922526664   -2.2636596936   -1.6272937563
C        0.4423835553    1.4987800683    1.4140838368
N        1.0604451503    1.9166896083    2.3133256424
6    
Image 5/11, Energy =  -169.0366562886 (+10.027 kcal/mol)
C       -0.2325342193   -1.3085363382   -1.1448436781
C       -0.6849929888   -0.2783605655   -0.7424435697
H       -0.9187985739    0.6376119303   -0.2700802010
H        0.2471121893   -2.1911144150   -1.4329972196
C        0.4521086364    1.4542028893    1.3356669115
N        1.1371049554    1.6861964984    2.2546977566
6    
Image 6/11, Energy =  -169.0297521629 (+14.359 kcal/mol)
C       -0.2026911307   -1.2327278637   -1.0559865213
C       -0.7347355439   -0.2079927861   -0.7444999824
H       -1.0961776281    0.7094172308   -0.3869855306
H        0.3872497887   -2.0791610311   -1.2100873650
C        0.4634636857    1.3728152194    1.2384326253
N        1.1828908276    1.4376492293    2.1591267741
6    
Image 7/11, Energy =  -169.0164846406 (+22.685 kcal/mol)
C       -0.2011252331   -1.1561949921   -0.9920250807
C       -0.7197150016   -0.1216507886   -0.6912661396
H       -1.2400331626    0.7610405584   -0.4880028917
H        0.5007160534   -1.9330886072   -0.9885686773
C        0.4701748995    1.2090268379    1.1195090945
N        1.1899824439    1.2408669894    2.0403536948
6    
Image 8/11, Energy =  -168.9961813965 (+35.425 kcal/mol)
C       -0.2376273654   -1.1080420445   -0.9815700987
C       -0.6237532162   -0.0025319954   -0.5494242441
H       -1.3291725156    0.7783916132   -0.5631412681
H        0.5757108981   -1.7706744264   -0.8009003633
C        0.4604284785    0.9740604254    0.9851920338
N        1.1544137206    1.1287964246    1.9098439401
6    
Image 9/11, Energy =  -169.0131383641 (+24.785 kcal/mol)
C       -0.2659330765   -1.0808542850   -0.9929677102
C       -0.5127245975    0.0806584700   -0.3988029485
H       -1.3132222570    0.7749314831   -0.5614083058
H        0.5914575818   -1.7005047803   -0.7345500562
C        0.4119767138    0.8240599307    0.8878654517
N        1.0884456354    1.1017091781    1.7998635673
6    
Image 10/11, Energy =  -169.0437609544 (+5.569 kcal/mol)
C       -0.2721093513   -1.0384613434   -0.9953339881
C       -0.4664498990    0.1336943575   -0.3047184047
H       -1.3026915424    0.8069996864   -0.5503883163
H        0.6404231461   -1.5232274468   -0.5526624607
C        0.3524169885    0.6272448767    0.7650856657
N        1.0484106581    0.9937498643    1.6380174988
