6    
Image 0/11, Energy =  -169.0522692291 (+0.398 kcal/mol)
C       -0.3689809232   -1.4576547332   -1.3858823910
C       -0.1536196575   -0.5941379364   -0.5627748996
H        0.0498937432    0.2058682499    0.1931202386
H       -0.5557149982   -2.2230003307   -2.1042277546
C        0.4068909404    1.6172446315    1.5286738868
N        0.6215308952    2.4516801189    2.3310909145
6    
Image 1/11, Energy =  -169.0529040743 (+0.000 kcal/mol)
C       -0.3438333234   -1.4592293887   -1.3595207135
C       -0.2646678006   -0.5258608188   -0.6110797843
H       -0.1456133710    0.2959853469    0.0878725316
H       -0.3961419626   -2.2833080661   -2.0080672334
C        0.3502949913    1.6668588886    1.5113136828
N        0.7999614661    2.3055540379    2.3794815131
6    
Image 2/11, Energy =  -169.0507910847 (+1.326 kcal/mol)
C       -0.3136167963   -1.4433547154   -1.3189928890
C       -0.3743883223   -0.4500939444   -0.6519194369
H       -0.3376613164    0.4102561859   -0.0000708820
H       -0.2302130643   -2.3217255311   -1.8859084288
C        0.3051062667    1.6964281838    1.4871402168
N        0.9507732322    2.1084898202    2.3697514178
6    
Image 3/11, Energy =  -169.0474573610 (+3.418 kcal/mol)
C       -0.2794742378   -1.4077069504   -1.2612032149
C       -0.4823856620   -0.3739980376   -0.6919504086
H       -0.5364329316    0.5189006562   -0.0970487269
H       -0.0579049882   -2.3195207182   -1.7288272786
C        0.2864111313    1.6968751344    1.4655891302
N        1.0697866880    1.8854499141    2.3134404978
6    
Image 4/11, Energy =  -169.0430237848 (+6.200 kcal/mol)
C       -0.2426926925   -1.3545241577   -1.1898477197
C       -0.5861109134   -0.3034930596   -0.7328869510
H       -0.7432343118    0.6136753256   -0.2106530161
H        0.1131073947   -2.2750185635   -1.5427580644
C        0.2983485583    1.6554432105    1.4423602056
N        1.1605819645    1.6639172424    2.2337855454
6    
Image 5/11, Energy =  -169.0374751284 (+9.682 kcal/mol)
C       -0.2077926089   -1.2832595264   -1.1080626421
C       -0.6793947350   -0.2387261737   -0.7690491153
H       -0.9525701448    0.6908376960   -0.3401096785
H        0.2758131967   -2.1852811929   -1.3318896347
C        0.3342704888    1.5545910748    1.3998089448
N        1.2296738030    1.4618381194    2.1493021267
6    
Image 6/11, Energy =  -169.0296834870 (+14.571 kcal/mol)
C       -0.1858767382   -1.1974052830   -1.0248996558
C       -0.7457077237   -0.1716455797   -0.7784490671
H       -1.1432424977    0.7511156672   -0.4655848027
H        0.4227611284   -2.0457398491   -1.1018675154
C        0.3824304884    1.3752846064    1.3055819915
N        1.2696353428    1.2883904349    2.0652190508
6    
Image 7/11, Energy =  -169.0138366629 (+24.515 kcal/mol)
C       -0.2011698010   -1.1310698456   -0.9896265932
C       -0.7294794473   -0.0897199831   -0.7076623733
H       -1.2774204089    0.7869046251   -0.5596833449
H        0.5259857781   -1.8789872551   -0.8903402891
C        0.4232556767    1.1289991416    1.1661187010
N        1.2588282024    1.1838733134    1.9811939012
6    
Image 8/11, Energy =  -168.9961774000 (+35.597 kcal/mol)
C       -0.2504075079   -1.1026246590   -1.0116460597
C       -0.6169743868    0.0073780110   -0.5403120235
H       -1.3248942154    0.7883305321   -0.6013570274
H        0.5686221942   -1.7399190212   -0.7533990473
C        0.4404998150    0.9005076335    1.0207443360
N        1.1831541008    1.1463274999    1.8859698238
6    
Image 9/11, Energy =  -169.0167555186 (+22.684 kcal/mol)
C       -0.2705568439   -1.0735667373   -1.0106192403
C       -0.5088428811    0.0878770576   -0.3873246766
H       -1.3085985744    0.7818401171   -0.5896813053
H        0.5834274084   -1.6879070136   -0.7048364375
C        0.4009586570    0.7806836710    0.9089299379
N        1.1036122341    1.1110729011    1.7835317227
6    
Image 10/11, Energy =  -169.0437609545 (+5.737 kcal/mol)
C       -0.2721093513   -1.0384613434   -0.9953339881
C       -0.4664498990    0.1336943575   -0.3047184047
H       -1.3026915424    0.8069996864   -0.5503883163
H        0.6404231461   -1.5232274468   -0.5526624607
C        0.3524169885    0.6272448767    0.7650856657
N        1.0484106581    0.9937498643    1.6380174988
