6    
Image 0/11, Energy =  -169.0522692293 (+0.000 kcal/mol)
C       -0.3689809232   -1.4576547332   -1.3858823910
C       -0.1536196575   -0.5941379364   -0.5627748996
H        0.0498937432    0.2058682499    0.1931202386
H       -0.5557149982   -2.2230003307   -2.1042277546
C        0.4068909404    1.6172446315    1.5286738868
N        0.6215308952    2.4516801189    2.3310909145
6    
Image 1/11, Energy =  -168.9768892251 (+47.302 kcal/mol)
C       -0.3556517159   -1.3978507063   -1.3381355398
C       -0.3189709710   -0.5860815461   -0.5788038571
H       -0.0604727988    0.3391366857    0.0998421190
H       -0.4011371269   -2.2846564623   -2.0466672177
C        0.4466990233    1.5954465119    1.5782447885
N        0.6895335892    2.3340055215    2.2855197070
6    
Image 2/11, Energy =  -169.0048121624 (+29.780 kcal/mol)
C       -0.3237456809   -1.3959953508   -1.3394955955
C       -0.4322669069   -0.5149792914   -0.5871257629
H       -0.2911145558    0.4328356798    0.0055700042
H       -0.2412409768   -2.3059631267   -1.9514004140
C        0.5108334302    1.4983793055    1.6045708170
N        0.7775346902    2.2857227792    2.2678809512
6    
Image 3/11, Energy =  -169.0077833786 (+27.915 kcal/mol)
C       -0.3011705645   -1.3761977677   -1.3143076895
C       -0.4913264475   -0.4398989745   -0.6290393665
H       -0.5327757398    0.4544534782   -0.0107481837
H       -0.0951084638   -2.2863694840   -1.8479518392
C        0.5764382287    1.4395896800    1.5591889847
N        0.8439429868    2.2084230678    2.2428580942
6    
Image 4/11, Energy =  -168.9611141539 (+57.201 kcal/mol)
C       -0.3029893273   -1.3018097331   -1.2316186377
C       -0.4980916518   -0.3921798739   -0.6577014546
H       -0.7594761141    0.5926413707   -0.1412246551
H        0.0723104257   -2.2759448437   -1.6534740114
C        0.5278190244    1.4121542519    1.4437041004
N        0.9604276428    1.9651388281    2.2403146584
6    
Image 5/11, Energy =  -168.9646205709 (+55.000 kcal/mol)
C       -0.2868365762   -1.2606784032   -1.1619632452
C       -0.5505491927   -0.2897243417   -0.6649901293
H       -1.0103266793    0.6862976096   -0.2872085697
H        0.2612414146   -2.2254112250   -1.4421373377
C        0.5182584564    1.3716557163    1.3578467309
N        1.0682125725    1.7178606440    2.1984525510
6    
Image 6/11, Energy =  -168.9642643321 (+55.224 kcal/mol)
C       -0.2732842699   -1.2224152802   -1.0794798603
C       -0.5921680280   -0.1967527767   -0.6712287779
H       -1.2084826674    0.7354079135   -0.3831850346
H        0.4190942800   -2.1313572086   -1.2563525227
C        0.5254861684    1.3135017594    1.2670983333
N        1.1293545167    1.5016155925    2.1231478620
6    
Image 7/11, Energy =  -168.9623357221 (+56.434 kcal/mol)
C       -0.2611085798   -1.1735894044   -0.9885083829
C       -0.6182629920   -0.1197160221   -0.6017857827
H       -1.3003743448    0.7895562088   -0.4994546488
H        0.5344463987   -1.9944185477   -1.0719128727
C        0.5085840583    1.2273422735    1.1516980663
N        1.1367154595    1.2708254916    2.0099636162
6    
Image 8/11, Energy =  -168.9565690002 (+60.053 kcal/mol)
C       -0.2622320609   -1.1298934219   -0.8879670680
C       -0.6107926166   -0.0035822174   -0.4995453177
H       -1.3439264778    0.8327958867   -0.6036135044
H        0.6366654660   -1.8077394886   -0.8616055343
C        0.4711087388    1.0866878686    1.0018648138
N        1.1091769505    1.0217313678    1.8508666152
6    
Image 9/11, Energy =  -168.9819533372 (+44.124 kcal/mol)
C       -0.2746030496   -1.1059689206   -0.8925492978
C       -0.5357103386    0.1307600689   -0.3775457424
H       -1.3140790934    0.8500380463   -0.6456154496
H        0.6676450490   -1.6380891221   -0.6594607733
C        0.3977120826    0.8439232541    0.8743076855
N        1.0590353500    0.9193366725    1.7008635780
6    
Image 10/11, Energy =  -169.0437609544 (+5.339 kcal/mol)
C       -0.2721093513   -1.0384613434   -0.9953339881
C       -0.4664498990    0.1336943575   -0.3047184047
H       -1.3026915424    0.8069996864   -0.5503883163
H        0.6404231461   -1.5232274468   -0.5526624607
C        0.3524169885    0.6272448767    0.7650856657
N        1.0484106581    0.9937498643    1.6380174988
