6    
Image 0/11, Energy =  -169.0522692293 (+0.292 kcal/mol)
C       -0.3689809232   -1.4576547332   -1.3858823910
C       -0.1536196575   -0.5941379364   -0.5627748996
H        0.0498937432    0.2058682499    0.1931202386
H       -0.5557149982   -2.2230003307   -2.1042277546
C        0.4068909404    1.6172446315    1.5286738868
N        0.6215308952    2.4516801189    2.3310909145
6    
Image 1/11, Energy =  -169.0527344063 (+0.000 kcal/mol)
C       -0.3523036809   -1.4520653537   -1.3638491228
C       -0.2749733927   -0.5265636630   -0.6065350626
H       -0.1393504862    0.2796645928    0.1107693473
H       -0.3920141394   -2.2694601845   -2.0202361678
C        0.4041535022    1.6133105960    1.5234583343
N        0.7544881968    2.3551140124    2.3563926682
6    
Image 2/11, Energy =  -169.0504957972 (+1.405 kcal/mol)
C       -0.3296236654   -1.4382086238   -1.3360525756
C       -0.3945668706   -0.4606873058   -0.6484535155
H       -0.3294218250    0.3738966474    0.0340035585
H       -0.2272763379   -2.3028533546   -1.9167017204
C        0.4027600728    1.5977887524    1.5038250584
N        0.8781286255    2.2300638839    2.3633791926
6    
Image 3/11, Energy =  -169.0470321356 (+3.578 kcal/mol)
C       -0.3001008941   -1.4102436792   -1.2919704099
C       -0.5063838993   -0.4001446987   -0.6860419762
H       -0.5245934983    0.4689578860   -0.0552892833
H       -0.0631917201   -2.3031074708   -1.7827616798
C        0.4069290399    1.5734935619    1.4666108223
N        0.9873409712    2.0710444004    2.3494525259
6    
Image 4/11, Energy =  -169.0426307421 (+6.340 kcal/mol)
C       -0.2674182195   -1.3684464053   -1.2276896600
C       -0.6033286494   -0.3389054041   -0.7213333373
H       -0.7198355913    0.5599095868   -0.1581273980
H        0.0964531852   -2.2681304133   -1.6168871613
C        0.4142479722    1.5407946876    1.4108398895
N        1.0798813019    1.8747779477    2.3131976666
6    
Image 5/11, Energy =  -169.0371906753 (+9.754 kcal/mol)
C       -0.2340905934   -1.3084256273   -1.1472950952
C       -0.6820268760   -0.2755778701   -0.7461788923
H       -0.9144911571    0.6432179899   -0.2725286052
H        0.2507385140   -2.1944485386   -1.4193034580
C        0.4300902535    1.4848990598    1.3387881427
N        1.1497798582    1.6503349852    2.2465179081
6    
Image 6/11, Energy =  -169.0298004431 (+14.391 kcal/mol)
C       -0.2076581743   -1.2311504458   -1.0630782727
C       -0.7294445512   -0.2065629147   -0.7474026204
H       -1.0951200342    0.7132796910   -0.3871290672
H        0.3902147201   -2.0804064836   -1.1997450978
C        0.4512806587    1.3766262963    1.2458194366
N        1.1907273802    1.4282138551    2.1515356216
6    
Image 7/11, Energy =  -169.0155030687 (+23.363 kcal/mol)
C       -0.2072089817   -1.1578734874   -1.0015550225
C       -0.7181056322   -0.1156837952   -0.6916713150
H       -1.2463901947    0.7613990731   -0.4930138649
H        0.5055464538   -1.9235351719   -0.9765921107
C        0.4681474539    1.1861500607    1.1251959554
N        1.1980109007    1.2495433181    2.0376363573
6    
Image 8/11, Energy =  -168.9959612325 (+35.626 kcal/mol)
C       -0.2482524070   -1.1052610260   -0.9890491319
C       -0.6199054131    0.0115613379   -0.5409568262
H       -1.3478624323    0.7773544207   -0.5837635715
H        0.5881375834   -1.7334353819   -0.7625975644
C        0.4666518336    0.9290838125    0.9797162014
N        1.1612308354    1.1206968332    1.8966508919
6    
Image 9/11, Energy =  -169.0143686443 (+24.075 kcal/mol)
C       -0.2708255055   -1.0812749354   -0.9985342424
C       -0.5163609236    0.0858747651   -0.4003536921
H       -1.3275910246    0.7738100240   -0.5722089179
H        0.6003391425   -1.6821263421   -0.7138560314
C        0.4176520546    0.8064488593    0.8881643075
N        1.0967862567    1.0972676251    1.7967885747
6    
Image 10/11, Energy =  -169.0437609544 (+5.631 kcal/mol)
C       -0.2721093513   -1.0384613434   -0.9953339881
C       -0.4664498990    0.1336943575   -0.3047184047
H       -1.3026915424    0.8069996864   -0.5503883163
H        0.6404231461   -1.5232274468   -0.5526624607
C        0.3524169885    0.6272448767    0.7650856657
N        1.0484106581    0.9937498643    1.6380174988
