6    
Image 0/11, Energy =  -169.0522692293 (+0.343 kcal/mol)
C       -0.3689809232   -1.4576547332   -1.3858823910
C       -0.1536196575   -0.5941379364   -0.5627748996
H        0.0498937432    0.2058682499    0.1931202386
H       -0.5557149982   -2.2230003307   -2.1042277546
C        0.4068909404    1.6172446315    1.5286738868
N        0.6215308952    2.4516801189    2.3310909145
6    
Image 1/11, Energy =  -169.0528156598 (+0.000 kcal/mol)
C       -0.3493271228   -1.4537054675   -1.3641271531
C       -0.2749035582   -0.5267425358   -0.6055677856
H       -0.1421010984    0.2849937358    0.1051054470
H       -0.3908544429   -2.2741320448   -2.0173818648
C        0.3898729621    1.6293928741    1.5180578292
N        0.7673132597    2.3401934381    2.3639135237
6    
Image 2/11, Energy =  -169.0507284599 (+1.310 kcal/mol)
C       -0.3267270679   -1.4405072832   -1.3332743303
C       -0.3936221681   -0.4603193679   -0.6486348317
H       -0.3336621083    0.3808104700    0.0268637951
H       -0.2233317698   -2.3082727016   -1.9116105517
C        0.3786983628    1.6285391973    1.4953624960
N        0.8986447506    2.1997496851    2.3712934203
6    
Image 3/11, Energy =  -169.0474273220 (+3.381 kcal/mol)
C       -0.2975907521   -1.4154692509   -1.2861784981
C       -0.5043559259   -0.3944915614   -0.6895357130
H       -0.5262493819    0.4757974829   -0.0621012050
H       -0.0586119875   -2.3084593347   -1.7749699661
C        0.3774473369    1.6145226228    1.4605402169
N        1.0093607098    2.0281000408    2.3522451640
6    
Image 4/11, Energy =  -169.0431060948 (+6.093 kcal/mol)
C       -0.2641844389   -1.3691454234   -1.2222799069
C       -0.6021395986   -0.3348294632   -0.7250502850
H       -0.7189913303    0.5663415201   -0.1639558551
H        0.1005756817   -2.2726796676   -1.6061157110
C        0.3878594584    1.5806372056    1.4107623285
N        1.0968802270    1.8296758277    2.3066394290
6    
Image 5/11, Energy =  -169.0375762016 (+9.563 kcal/mol)
C       -0.2302322709   -1.3050927755   -1.1434266335
C       -0.6819222131   -0.2728498052   -0.7512291140
H       -0.9102895370    0.6476267653   -0.2765937347
H        0.2519834855   -2.1961088805   -1.4073142094
C        0.4097541716    1.5101942150    1.3443608111
N        1.1607063633    1.6162304793    2.2342028805
6    
Image 6/11, Energy =  -169.0297858405 (+14.451 kcal/mol)
C       -0.2054121201   -1.2284547167   -1.0612999146
C       -0.7324474701   -0.2021463684   -0.7526577221
H       -1.0942343375    0.7154531432   -0.3928028374
H        0.3920985489   -2.0749352229   -1.1880989869
C        0.4398436004    1.3745398689    1.2532560478
N        1.2001517781    1.4155432937    2.1416034129
6    
Image 7/11, Energy =  -169.0140893025 (+24.301 kcal/mol)
C       -0.2127973325   -1.1521593891   -1.0058649042
C       -0.7197274878   -0.1104295110   -0.6916019451
H       -1.2566214068    0.7626251963   -0.5081798765
H        0.5134768668   -1.9015896174   -0.9510543537
C        0.4673236498    1.1579777957    1.1285631630
N        1.2083457105    1.2435755225    2.0281379159
6    
Image 8/11, Energy =  -168.9961398931 (+35.565 kcal/mol)
C       -0.2571082607   -1.1048102548   -1.0015894981
C       -0.6147637640    0.0174719358   -0.5328536082
H       -1.3539249152    0.7719396625   -0.5970725220
H        0.5903043376   -1.7038675376   -0.7367309181
C        0.4677120468    0.8989694315    0.9805709827
N        1.1677805556    1.1202967590    1.8876755628
6    
Image 9/11, Energy =  -169.0164529980 (+22.818 kcal/mol)
C       -0.2712344982   -1.0787287442   -1.0001479621
C       -0.5208410412    0.0904225467   -0.3998509761
H       -1.3369447567    0.7743575553   -0.5840865332
H        0.6075158571   -1.6535466630   -0.6855004308
C        0.4180348496    0.7832980747    0.8850834222
N        1.1034695895    1.0841972264    1.7845024782
6    
Image 10/11, Energy =  -169.0437609544 (+5.682 kcal/mol)
C       -0.2721093513   -1.0384613434   -0.9953339881
C       -0.4664498990    0.1336943575   -0.3047184047
H       -1.3026915424    0.8069996864   -0.5503883163
H        0.6404231461   -1.5232274468   -0.5526624607
C        0.3524169885    0.6272448767    0.7650856657
N        1.0484106581    0.9937498643    1.6380174988
