6    
Image 0/11, Energy =  -169.0522692293 (+0.000 kcal/mol)
C       -0.3689809232   -1.4576547332   -1.3858823910
C       -0.1536196575   -0.5941379364   -0.5627748996
H        0.0498937432    0.2058682499    0.1931202386
H       -0.5557149982   -2.2230003307   -2.1042277546
C        0.4068909404    1.6172446315    1.5286738868
N        0.6215308952    2.4516801189    2.3310909145
6    
Image 1/11, Energy =  -169.0519517563 (+0.199 kcal/mol)
C       -0.3623197456   -1.4491624494   -1.3519401551
C       -0.2692148419   -0.5219152411   -0.6060488710
H       -0.1256013013    0.2745563314    0.1074859693
H       -0.3986971128   -2.2503329179   -2.0207461204
C        0.4439763729    1.5622385078    1.5395783969
N        0.7118566287    2.3846157701    2.3316707788
6    
Image 2/11, Energy =  -169.0487500068 (+2.208 kcal/mol)
C       -0.3398608261   -1.4350461105   -1.3288276493
C       -0.3883388187   -0.4623435709   -0.6376676071
H       -0.3085203564    0.3594377562    0.0443267662
H       -0.2472456145   -2.2732243022   -1.9383553691
C        0.4869208847    1.4938301725    1.5443053558
N        0.7970447309    2.3173460537    2.3162185034
6    
Image 3/11, Energy =  -169.0442660198 (+5.022 kcal/mol)
C       -0.3021030679   -1.4009525783   -1.2923193081
C       -0.4943177596   -0.4086631153   -0.6581754051
H       -0.5227377614    0.4547016208   -0.0337154883
H       -0.0878378721   -2.2761384198   -1.8189910532
C        0.5141467292    1.4338324425    1.5005127578
N        0.8928497316    2.1972200492    2.3026884969
6    
Image 4/11, Energy =  -169.0394335365 (+8.055 kcal/mol)
C       -0.2592407901   -1.3585808333   -1.2247469787
C       -0.5797189920   -0.3390328644   -0.6927374859
H       -0.7368749573    0.5489599036   -0.1450408881
H        0.0689070227   -2.2495195013   -1.6474641128
C        0.5012269644    1.4056581495    1.4137885431
N        1.0057007511    1.9925151457    2.2962009224
6    
Image 5/11, Energy =  -169.0333923029 (+11.845 kcal/mol)
C       -0.2244771098   -1.2950143570   -1.1367065065
C       -0.6472409067   -0.2715670225   -0.7145808499
H       -0.9521052677    0.6270566723   -0.2834360308
H        0.2266467599   -2.1746138266   -1.4406974444
C        0.4901154878    1.3768390690    1.3227803234
N        1.1070610342    1.7372994648    2.2526405080
6    
Image 6/11, Energy =  -169.0262227725 (+16.344 kcal/mol)
C       -0.1974855215   -1.2272582260   -1.0494400985
C       -0.6982852305   -0.2057603942   -0.7015159052
H       -1.1215991714    0.6826647177   -0.4050063383
H        0.3626515736   -2.0631009458   -1.2395748865
C        0.4896484857    1.3245327667    1.2260546394
N        1.1650698630    1.4889220815    2.1694825879
6    
Image 7/11, Energy =  -169.0143618526 (+23.787 kcal/mol)
C       -0.1923125576   -1.1629902463   -0.9599981042
C       -0.7064719276   -0.1195026220   -0.6543778539
H       -1.2376609541    0.7363875908   -0.5040002967
H        0.4824117361   -1.9234442586   -1.0330152477
C        0.4783960786    1.2299264585    1.1048890086
N        1.1756376245    1.2396230760    2.0465024933
6    
Image 8/11, Energy =  -168.9953429894 (+35.722 kcal/mol)
C       -0.2247492392   -1.1074121831   -0.9236196968
C       -0.6357331526   -0.0106712595   -0.5365490258
H       -1.2995884572    0.7762633969   -0.5798004448
H        0.5696736267   -1.7730353787   -0.8326663546
C        0.4458823674    1.0540695269    0.9696373863
N        1.1445148549    1.0607858944    1.9029981373
6    
Image 9/11, Energy =  -169.0212962587 (+19.436 kcal/mol)
C       -0.2699655261   -1.0693027062   -0.9496599693
C       -0.4966356743    0.1107987178   -0.3570654897
H       -1.3070177815    0.7759492893   -0.5865595295
H        0.6061739820   -1.6772349990   -0.7205314191
C        0.3922350911    0.8259844008    0.8432013145
N        1.0752099089    1.0338052935    1.7706150941
6    
Image 10/11, Energy =  -169.0437609544 (+5.339 kcal/mol)
C       -0.2721093513   -1.0384613434   -0.9953339881
C       -0.4664498990    0.1336943575   -0.3047184047
H       -1.3026915424    0.8069996864   -0.5503883163
H        0.6404231461   -1.5232274468   -0.5526624607
C        0.3524169885    0.6272448767    0.7650856657
N        1.0484106581    0.9937498643    1.6380174988
