6    
Image 0/11, Energy =  -169.0522692293 (+0.306 kcal/mol)
C       -0.3689809232   -1.4576547332   -1.3858823910
C       -0.1536196575   -0.5941379364   -0.5627748996
H        0.0498937432    0.2058682499    0.1931202386
H       -0.5557149982   -2.2230003307   -2.1042277546
C        0.4068909404    1.6172446315    1.5286738868
N        0.6215308952    2.4516801189    2.3310909145
6    
Image 1/11, Energy =  -169.0527575866 (+0.000 kcal/mol)
C       -0.3447560053   -1.4543100660   -1.3585085399
C       -0.2709363776   -0.5231317276   -0.6060249890
H       -0.1459893195    0.2954452379    0.0977153014
H       -0.3902552879   -2.2766480812   -2.0085402989
C        0.3704203331    1.6441973583    1.5060737034
N        0.7815166570    2.3144472783    2.3692848190
6    
Image 2/11, Energy =  -169.0506215724 (+1.340 kcal/mol)
C       -0.3160609367   -1.4396888781   -1.3198935786
C       -0.3856348679   -0.4505782083   -0.6475313401
H       -0.3401538369    0.4031084668    0.0121002100
H       -0.2215816116   -2.3120197998   -1.8911641123
C        0.3401360994    1.6605334052    1.4771327464
N        0.9232951533    2.1386450137    2.3693560718
6    
Image 3/11, Energy =  -169.0473181275 (+3.413 kcal/mol)
C       -0.2843769333   -1.4085430698   -1.2660888337
C       -0.4940181950   -0.3818010854   -0.6883516664
H       -0.5355009612    0.5027979432   -0.0810919853
H       -0.0539440511   -2.3098329960   -1.7456682975
C        0.3323767796    1.6513760911    1.4473895357
N        1.0354633606    1.9460031158    2.3338112452
6    
Image 4/11, Energy =  -169.0427783276 (+6.262 kcal/mol)
C       -0.2504713673   -1.3581165661   -1.1992093654
C       -0.5948120389   -0.3163702319   -0.7251216149
H       -0.7349253243    0.5935179496   -0.1870680268
H        0.1112723794   -2.2672823589   -1.5691113630
C        0.3467562761    1.6037882901    1.4077405897
N        1.1221800746    1.7444629156    2.2727697790
6    
Image 5/11, Energy =  -169.0368159764 (+10.004 kcal/mol)
C       -0.2184872719   -1.2890235810   -1.1209764959
C       -0.6809527555   -0.2511716569   -0.7530547541
H       -0.9352683737    0.6732948415   -0.3050217891
H        0.2702358020   -2.1809814660   -1.3632917752
C        0.3773713320    1.5043797944    1.3487175637
N        1.1871012669    1.5435020659    2.1936272497
6    
Image 6/11, Energy =  -169.0281887791 (+15.417 kcal/mol)
C       -0.1989675213   -1.2092208348   -1.0441871299
C       -0.7320383266   -0.1818325200   -0.7513644888
H       -1.1211051138    0.7360354000   -0.4229900566
H        0.4126760431   -2.0504869219   -1.1423012628
C        0.4141444294    1.3395061623    1.2588038438
N        1.2252904891    1.3659987116    2.1020390934
6    
Image 7/11, Energy =  -169.0121056753 (+25.509 kcal/mol)
C       -0.2112052055   -1.1438351940   -1.0051919324
C       -0.7108176391   -0.0985546866   -0.6802000551
H       -1.2606054911    0.7724926075   -0.5209096644
H        0.5176121473   -1.8923938572   -0.9359334381
C        0.4440972767    1.1209692215    1.1392816662
N        1.2209189116    1.2413219054    2.0029534229
6    
Image 8/11, Energy =  -168.9962095793 (+35.484 kcal/mol)
C       -0.2521019216   -1.1071226275   -1.0124975309
C       -0.6147170212    0.0007661401   -0.5348183990
H       -1.3285274040    0.7771610090   -0.5801573270
H        0.5733092210   -1.7452323601   -0.7799517125
C        0.4535629690    0.9029222431    1.0129923891
N        1.1684741569    1.1715055918    1.8944325795
6    
Image 9/11, Energy =  -169.0185482310 (+21.467 kcal/mol)
C       -0.2719627398   -1.0757315516   -1.0098526822
C       -0.5069209460    0.0856170793   -0.3812101237
H       -1.3135117768    0.7752543906   -0.5708757659
H        0.5941012364   -1.6770995739   -0.7120045114
C        0.4053044921    0.7756592141    0.8955908008
N        1.0929897341    1.1163004375    1.7783522805
6    
Image 10/11, Energy =  -169.0437609544 (+5.645 kcal/mol)
C       -0.2721093513   -1.0384613434   -0.9953339881
C       -0.4664498990    0.1336943575   -0.3047184047
H       -1.3026915424    0.8069996864   -0.5503883163
H        0.6404231461   -1.5232274468   -0.5526624607
C        0.3524169885    0.6272448767    0.7650856657
N        1.0484106581    0.9937498643    1.6380174988
