6    
Image 0/11, Energy =  -169.0522692293 (+0.000 kcal/mol)
C       -0.3689809232   -1.4576547332   -1.3858823910
C       -0.1536196575   -0.5941379364   -0.5627748996
H        0.0498937432    0.2058682499    0.1931202386
H       -0.5557149982   -2.2230003307   -2.1042277546
C        0.4068909404    1.6172446315    1.5286738868
N        0.6215308952    2.4516801189    2.3310909145
6    
Image 1/11, Energy =  -169.0494458653 (+1.772 kcal/mol)
C       -0.3598214389   -1.4444410645   -1.3698203006
C       -0.3053371782   -0.5397207084   -0.5608488881
H       -0.0820507043    0.3193123550    0.0954120872
H       -0.3959124045   -2.2642142442   -2.0290488890
C        0.4371306119    1.5558358419    1.5400768356
N        0.7059911140    2.3732278239    2.3242291544
6    
Image 2/11, Energy =  -169.0456744506 (+4.138 kcal/mol)
C       -0.3273339701   -1.4234504158   -1.3491749319
C       -0.4196675641   -0.4887105117   -0.5890861706
H       -0.2909841948    0.4081193725    0.0135830875
H       -0.2463647936   -2.2890026375   -1.9453504784
C        0.4953271534    1.4700076670    1.5681546580
N        0.7890233692    2.3230365217    2.3018738354
6    
Image 3/11, Energy =  -169.0429377962 (+5.856 kcal/mol)
C       -0.2993167636   -1.3933689845   -1.3169291387
C       -0.4927302206   -0.4255689565   -0.6297053093
H       -0.5329906672    0.4551430717   -0.0173162452
H       -0.0930920419   -2.2774881845   -1.8366362631
C        0.5539453400    1.4081257680    1.5208645289
N        0.8641843533    2.2331572854    2.2797224275
6    
Image 4/11, Energy =  -169.0353249722 (+10.633 kcal/mol)
C       -0.2807643623   -1.3584531368   -1.2542895273
C       -0.5269810776   -0.3383578853   -0.6419331680
H       -0.7507455234    0.5724903000   -0.1457650877
H        0.0661429750   -2.2578057865   -1.6476915340
C        0.5064906568    1.3898112282    1.4077021025
N        0.9858573310    1.9923152803    2.2819772146
6    
Image 5/11, Energy =  -169.0283686712 (+14.998 kcal/mol)
C       -0.2570586125   -1.3024057646   -1.1683397212
C       -0.5854251495   -0.2527832835   -0.6633987100
H       -0.9899084189    0.6579701157   -0.2911790968
H        0.2434347638   -2.1975557774   -1.4375981924
C        0.4923853656    1.3595349180    1.3195942004
N        1.0965720474    1.7352397917    2.2409215200
6    
Image 6/11, Energy =  -169.0209392397 (+19.660 kcal/mol)
C       -0.2393607882   -1.2444254049   -1.0774626923
C       -0.6320554247   -0.1764273874   -0.6696277538
H       -1.1767736161    0.7064226342   -0.3945028639
H        0.3930859347   -2.0995378362   -1.2495293046
C        0.4966343873    1.3083782194    1.2277072322
N        1.1584695065    1.5055897748    2.1634153819
6    
Image 7/11, Energy =  -169.0102242111 (+26.384 kcal/mol)
C       -0.2317740355   -1.1823253699   -0.9806919918
C       -0.6513753823   -0.1055279101   -0.6133418367
H       -1.2738246244    0.7612829147   -0.5019586038
H        0.5093371082   -1.9654300161   -1.0633680596
C        0.4806590097    1.2264039446    1.1113521039
N        1.1669779243    1.2655964363    2.0480083845
6    
Image 8/11, Energy =  -168.9930678556 (+37.149 kcal/mol)
C       -0.2468704087   -1.1221424306   -0.8921494930
C       -0.6234211977   -0.0037102028   -0.5122536609
H       -1.3238272991    0.8097191528   -0.5970570066
H        0.6119718619   -1.7928372963   -0.8550496528
C        0.4434216593    1.0821593148    0.9650804151
N        1.1387253843    1.0268114578    1.8914294020
6    
Image 9/11, Energy =  -169.0174047677 (+21.878 kcal/mol)
C       -0.2773227284   -1.0897249396   -0.9028551926
C       -0.5234101470    0.1218230288   -0.3717762496
H       -1.3135576324    0.8325506222   -0.6333962294
H        0.6556282810   -1.6502847826   -0.6743920940
C        0.3730258612    0.8386968405    0.8359470553
N        1.0856363656    0.9469392291    1.7464727109
6    
Image 10/11, Energy =  -169.0437609544 (+5.339 kcal/mol)
C       -0.2721093513   -1.0384613434   -0.9953339881
C       -0.4664498990    0.1336943575   -0.3047184047
H       -1.3026915424    0.8069996864   -0.5503883163
H        0.6404231461   -1.5232274468   -0.5526624607
C        0.3524169885    0.6272448767    0.7650856657
N        1.0484106581    0.9937498643    1.6380174988
