6    
Image 0/11, Energy =  -169.0522692293 (+0.349 kcal/mol)
C       -0.3689809232   -1.4576547332   -1.3858823910
C       -0.1536196575   -0.5941379364   -0.5627748996
H        0.0498937432    0.2058682499    0.1931202386
H       -0.5557149982   -2.2230003307   -2.1042277546
C        0.4068909404    1.6172446315    1.5286738868
N        0.6215308952    2.4516801189    2.3310909145
6    
Image 1/11, Energy =  -169.0528255561 (+0.000 kcal/mol)
C       -0.3479662637   -1.4531179222   -1.3647469448
C       -0.2754601075   -0.5274479977   -0.6050604686
H       -0.1425497523    0.2855969690    0.1040463712
H       -0.3911260125   -2.2750296066   -2.0166877346
C        0.3877025910    1.6318453551    1.5173949710
N        0.7693995446    2.3381532021    2.3650538020
6    
Image 2/11, Energy =  -169.0507536047 (+1.300 kcal/mol)
C       -0.3246467849   -1.4405782108   -1.3332170107
C       -0.3942428763   -0.4601470401   -0.6477142439
H       -0.3341459605    0.3825043100    0.0252755571
H       -0.2233434115   -2.3092415240   -1.9101285537
C        0.3742478385    1.6336027026    1.4933319151
N        0.9021311941    2.1938597620    2.3724523336
6    
Image 3/11, Energy =  -169.0474984584 (+3.343 kcal/mol)
C       -0.2963140602   -1.4145087656   -1.2841067511
C       -0.5040284987   -0.3944104472   -0.6907321418
H       -0.5260918521    0.4776400791   -0.0636721891
H       -0.0583758141   -2.3096814970   -1.7728416256
C        0.3716331937    1.6214837136    1.4588921683
N        1.0131770308    2.0194769166    2.3524605379
6    
Image 4/11, Energy =  -169.0431502392 (+6.071 kcal/mol)
C       -0.2629640282   -1.3690906908   -1.2204016334
C       -0.6021955067   -0.3335514182   -0.7257523115
H       -0.7192088158    0.5675636055   -0.1657483822
H        0.1012552585   -2.2728822329   -1.6037775239
C        0.3829001010    1.5863963412    1.4105847510
N        1.1002129906    1.8215643944    2.3050950995
6    
Image 5/11, Energy =  -169.0376235835 (+9.539 kcal/mol)
C       -0.2287045751   -1.3050503351   -1.1417893973
C       -0.6829805560   -0.2717102810   -0.7520242614
H       -0.9097191758    0.6482855884   -0.2776654145
H        0.2521920763   -2.1957221622   -1.4058598830
C        0.4065731294    1.5129221782    1.3456168831
N        1.1626391006    1.6112750102    2.2317220730
6    
Image 6/11, Energy =  -169.0297671114 (+14.469 kcal/mol)
C       -0.2044658511   -1.2269168334   -1.0590951029
C       -0.7347214758   -0.2015193225   -0.7545893898
H       -1.0946815984    0.7165574416   -0.3950180091
H        0.3934273230   -2.0727486584   -1.1847923195
C        0.4381247638    1.3733844088    1.2543986890
N        1.2023168382    1.4112429617    2.1390961321
6    
Image 7/11, Energy =  -169.0137938569 (+24.493 kcal/mol)
C       -0.2133543031   -1.1504592789   -1.0061250746
C       -0.7207486528   -0.1089959484   -0.6917917113
H       -1.2588694003    0.7636322824   -0.5119438677
H        0.5155916770   -1.8964006782   -0.9438750181
C        0.4665541563    1.1529099787    1.1283880496
N        1.2108265228    1.2393136413    2.0253476216
6    
Image 8/11, Energy =  -168.9961661013 (+35.554 kcal/mol)
C       -0.2578360046   -1.1054011361   -1.0054731876
C       -0.6135177677    0.0160541663   -0.5321798165
H       -1.3512866240    0.7707176732   -0.5955486506
H        0.5881430461   -1.7040851942   -0.7375460118
C        0.4661372504    0.8983112177    0.9829123637
N        1.1683600999    1.1244032695    1.8878353018
6    
Image 9/11, Energy =  -169.0169464367 (+22.514 kcal/mol)
C       -0.2709235925   -1.0783969946   -1.0016534796
C       -0.5204395973    0.0904005754   -0.3985212341
H       -1.3349848487    0.7737571124   -0.5844356259
H        0.6066067078   -1.6496308832   -0.6822056764
C        0.4160168353    0.7802881452    0.8847042520
N        1.1037244955    1.0835820408    1.7821117621
6    
Image 10/11, Energy =  -169.0437609544 (+5.688 kcal/mol)
C       -0.2721093513   -1.0384613434   -0.9953339881
C       -0.4664498990    0.1336943575   -0.3047184047
H       -1.3026915424    0.8069996864   -0.5503883163
H        0.6404231461   -1.5232274468   -0.5526624607
C        0.3524169885    0.6272448767    0.7650856657
N        1.0484106581    0.9937498643    1.6380174988
