6    
Image 0/11, Energy =  -169.0522692293 (+0.335 kcal/mol)
C       -0.3689809232   -1.4576547332   -1.3858823910
C       -0.1536196575   -0.5941379364   -0.5627748996
H        0.0498937432    0.2058682499    0.1931202386
H       -0.5557149982   -2.2230003307   -2.1042277546
C        0.4068909404    1.6172446315    1.5286738868
N        0.6215308952    2.4516801189    2.3310909145
6    
Image 1/11, Energy =  -169.0528029046 (+0.000 kcal/mol)
C       -0.3504553211   -1.4533306380   -1.3632076662
C       -0.2745701364   -0.5269122889   -0.6065859499
H       -0.1416944954    0.2840592160    0.1064770140
H       -0.3906818993   -2.2732065195   -2.0181316387
C        0.3923187517    1.6267271704    1.5188256398
N        0.7650831002    2.3426630599    2.3626225974
6    
Image 2/11, Energy =  -169.0506980609 (+1.321 kcal/mol)
C       -0.3282018316   -1.4407256978   -1.3339866963
C       -0.3933691876   -0.4600368663   -0.6490481913
H       -0.3331599052    0.3790826075    0.0283357001
H       -0.2235458904   -2.3071575614   -1.9126216657
C        0.3828232221    1.6229079259    1.4966330405
N        0.8954535920    2.2059295918    2.3706878104
6    
Image 3/11, Energy =  -169.0473650465 (+3.412 kcal/mol)
C       -0.2992952512   -1.4122383243   -1.2864745413
C       -0.5042989603   -0.3983567619   -0.6902663114
H       -0.5262547075    0.4745464970   -0.0604355500
H       -0.0588840638   -2.3079072894   -1.7769482898
C        0.3826052983    1.6068985296    1.4611533347
N        1.0061276839    2.0370573485    2.3529713565
6    
Image 4/11, Energy =  -169.0430475902 (+6.122 kcal/mol)
C       -0.2653769202   -1.3694853963   -1.2243537094
C       -0.6023726929   -0.3358031148   -0.7241571710
H       -0.7187856902    0.5649558048   -0.1625061649
H        0.0999477979   -2.2720730316   -1.6082544893
C        0.3927135707    1.5742005038    1.4107521230
N        1.0938739341    1.8382052335    2.3085194111
6    
Image 5/11, Energy =  -169.0375290965 (+9.584 kcal/mol)
C       -0.2312249398   -1.3072736970   -1.1456423888
C       -0.6820121313   -0.2722954448   -0.7497489686
H       -0.9107471520    0.6466047678   -0.2756578475
H        0.2518925603   -2.1958813827   -1.4090668696
C        0.4124477908    1.5067843247    1.3422095368
N        1.1596438715    1.6220614306    2.2379065377
6    
Image 6/11, Energy =  -169.0298092105 (+14.429 kcal/mol)
C       -0.2067151059   -1.2294794353   -1.0631446042
C       -0.7306574761   -0.2032398615   -0.7513088861
H       -1.0939286107    0.7148336046   -0.3907446735
H        0.3914661643   -2.0768990469   -1.1906977131
C        0.4413415473    1.3760420861    1.2515103146
N        1.1984934807    1.4187426509    2.1443855621
6    
Image 7/11, Energy =  -169.0144137140 (+24.090 kcal/mol)
C       -0.2117643749   -1.1543336715   -1.0058585593
C       -0.7190761296   -0.1113242807   -0.6917514415
H       -1.2539502926    0.7618313193   -0.5039006839
H        0.5112648783   -1.9072349669   -0.9579293631
C        0.4679195615    1.1638812659    1.1289415535
N        1.2056063572    1.2471803310    2.0304984937
6    
Image 8/11, Energy =  -168.9960948640 (+35.585 kcal/mol)
C       -0.2559619541   -1.1042401977   -0.9983244432
C       -0.6159159978    0.0176653271   -0.5343973592
H       -1.3552541909    0.7733891635   -0.5963809138
H        0.5916159665   -1.7070166685   -0.7387106641
C        0.4686830290    0.9014330028    0.9792211960
N        1.1668331474    1.1187693692    1.8885921834
6    
Image 9/11, Energy =  -169.0158590515 (+23.183 kcal/mol)
C       -0.2715432510   -1.0796735569   -0.9999788731
C       -0.5205573215    0.0899714407   -0.4007572886
H       -1.3369814224    0.7745062563   -0.5821440934
H        0.6070719916   -1.6598285365   -0.6911442584
C        0.4199034065    0.7879907134    0.8868636877
N        1.1021065968    1.0870336789    1.7871608242
6    
Image 10/11, Energy =  -169.0437609544 (+5.674 kcal/mol)
C       -0.2721093513   -1.0384613434   -0.9953339881
C       -0.4664498990    0.1336943575   -0.3047184047
H       -1.3026915424    0.8069996864   -0.5503883163
H        0.6404231461   -1.5232274468   -0.5526624607
C        0.3524169885    0.6272448767    0.7650856657
N        1.0484106581    0.9937498643    1.6380174988
