3    
Image 0/11, Energy =   -92.8141878332 (+8.752 kcal/mol)
C       -0.7519862172   -0.8272338407    0.0000000000
N        0.0394753340    0.0434721354    0.0000000000
H        0.7125108832    0.7837617053    0.0000000000
3    
Image 1/11, Energy =   -92.8033822664 (+15.533 kcal/mol)
C       -0.5421338433   -0.8984482943    0.0000000000
N       -0.1512031437    0.2039701759   -0.0000000000
H        0.6933369871    0.6944781205   -0.0000000000
3    
Image 2/11, Energy =   -92.7734826224 (+34.295 kcal/mol)
C       -0.3506931997   -0.8653356844   -0.0000000000
N       -0.3217082616    0.3231409985   -0.0000000000
H        0.6724014613    0.5421946891   -0.0000000000
3    
Image 3/11, Energy =   -92.7406351831 (+54.907 kcal/mol)
C       -0.1898033698   -0.7658428660   -0.0000000000
N       -0.4805500638    0.3904875893   -0.0000000000
H        0.6703534335    0.3753552803   -0.0000000000
3    
Image 4/11, Energy =   -92.7236060391 (+65.593 kcal/mol)
C       -0.0832461893   -0.6435057438   -0.0000000000
N       -0.6537088492    0.3976754055   -0.0000000000
H        0.7369550385    0.2458303420   -0.0000000000
3    
Image 5/11, Energy =   -92.7447262059 (+52.340 kcal/mol)
C       -0.0326541258   -0.5024558210   -0.0000000000
N       -0.8213130787    0.3566359804   -0.0000000000
H        0.8539672045    0.1458198443   -0.0000000000
3    
Image 6/11, Energy =   -92.7872708738 (+25.643 kcal/mol)
C        0.0023134827   -0.3426448917   -0.0000000000
N       -0.9658877848    0.2726209712   -0.0000000000
H        0.9635743020    0.0700239243   -0.0000000000
3    
Image 7/11, Energy =   -92.8196324779 (+5.335 kcal/mol)
C        0.0340985436   -0.1570290259   -0.0000000000
N       -1.0800871854    0.0806750043   -0.0000000000
H        1.0459886411    0.0763540248   -0.0000000000
3    
Image 8/11, Energy =   -92.8275936764 (+0.340 kcal/mol)
C        0.0410845054   -0.0302281062   -0.0000000000
N       -1.0760436918   -0.2580735207   -0.0000000000
H        1.0349591842    0.2883016290   -0.0000000000
3    
Image 9/11, Energy =   -92.8281351293 (+0.000 kcal/mol)
C        0.0320117075    0.0087540103   -0.0000000000
N       -0.9501571973   -0.5731907708   -0.0000000000
H        0.9181454859    0.5644367616   -0.0000000000
3    
Image 10/11, Energy =   -92.8275480250 (+0.368 kcal/mol)
C        0.0194260531    0.0213642916    0.0000000000
N       -0.7589320385   -0.8347584655    0.0000000000
H        0.7395059801    0.8133941739    0.0000000000
