3    
Image 0/11, Energy =   -92.8141878332 (+8.754 kcal/mol)
C       -0.7519862172   -0.8272338407    0.0000000000
N        0.0394753340    0.0434721354    0.0000000000
H        0.7125108832    0.7837617053    0.0000000000
3    
Image 1/11, Energy =   -92.8033822664 (+15.535 kcal/mol)
C       -0.5421338433   -0.8984482943    0.0000000000
N       -0.1512031437    0.2039701759   -0.0000000000
H        0.6933369871    0.6944781205   -0.0000000000
3    
Image 2/11, Energy =   -92.7734826224 (+34.297 kcal/mol)
C       -0.3506931997   -0.8653356844   -0.0000000000
N       -0.3217082616    0.3231409985   -0.0000000000
H        0.6724014613    0.5421946891   -0.0000000000
3    
Image 3/11, Energy =   -92.7405766097 (+54.946 kcal/mol)
C       -0.1895876007   -0.7654458001   -0.0000000000
N       -0.4806634125    0.3907797418   -0.0000000000
H        0.6702510132    0.3746660620   -0.0000000000
3    
Image 4/11, Energy =   -92.7236060391 (+65.595 kcal/mol)
C       -0.0832461893   -0.6435057438   -0.0000000000
N       -0.6537088492    0.3976754055   -0.0000000000
H        0.7369550385    0.2458303420   -0.0000000000
3    
Image 5/11, Energy =   -92.7447262059 (+52.342 kcal/mol)
C       -0.0326541258   -0.5024558210   -0.0000000000
N       -0.8213130787    0.3566359804   -0.0000000000
H        0.8539672045    0.1458198443   -0.0000000000
3    
Image 6/11, Energy =   -92.7884338294 (+24.915 kcal/mol)
C        0.0035740723   -0.3377206854   -0.0000000000
N       -0.9698220986    0.2686583448   -0.0000000000
H        0.9662480262    0.0690623443   -0.0000000000
3    
Image 7/11, Energy =   -92.8202992468 (+4.919 kcal/mol)
C        0.0348935800   -0.1506294458   -0.0000000000
N       -1.0825303681    0.0723639285   -0.0000000000
H        1.0476367875    0.0782655204   -0.0000000000
3    
Image 8/11, Energy =   -92.8276323566 (+0.318 kcal/mol)
C        0.0409740362   -0.0288923880   -0.0000000000
N       -1.0747605406   -0.2648005089   -0.0000000000
H        1.0337865021    0.2936928990   -0.0000000000
3    
Image 9/11, Energy =   -92.8281385161 (+0.000 kcal/mol)
C        0.0317026094    0.0090167262   -0.0000000000
N       -0.9482975986   -0.5763040689   -0.0000000000
H        0.9165949852    0.5672873438   -0.0000000000
3    
Image 10/11, Energy =   -92.8275480250 (+0.371 kcal/mol)
C        0.0194260531    0.0213642916    0.0000000000
N       -0.7589320385   -0.8347584655    0.0000000000
H        0.7395059801    0.8133941739    0.0000000000
