3    
Image 0/11, Energy =   -92.8141878332 (+8.785 kcal/mol)
C       -0.7519862172   -0.8272338407    0.0000000000
N        0.0394753340    0.0434721354    0.0000000000
H        0.7125108832    0.7837617053    0.0000000000
3    
Image 1/11, Energy =   -92.8046517461 (+14.769 kcal/mol)
C       -0.5643357396   -0.8909166509   -0.0000000000
N       -0.1384841218    0.1973849799   -0.0000000000
H        0.7028198613    0.6935316738    0.0000000000
3    
Image 2/11, Energy =   -92.7764634760 (+32.457 kcal/mol)
C       -0.3708115630   -0.8701300958   -0.0000000000
N       -0.3065446315    0.3166590412   -0.0000000000
H        0.6773561944    0.5534710584    0.0000000000
3    
Image 3/11, Energy =   -92.7432265217 (+53.314 kcal/mol)
C       -0.2070127576   -0.7745438465   -0.0000000000
N       -0.4640770531    0.3875544820   -0.0000000000
H        0.6710898108    0.3869893680   -0.0000000000
3    
Image 4/11, Energy =   -92.7236127528 (+65.622 kcal/mol)
C       -0.0881639632   -0.6471831100   -0.0000000000
N       -0.6492445765    0.3992224293   -0.0000000000
H        0.7374085397    0.2479606845   -0.0000000000
3    
Image 5/11, Energy =   -92.7497645088 (+49.211 kcal/mol)
C       -0.0236067624   -0.4829929140    0.0000000000
N       -0.8445781469    0.3377477356   -0.0000000000
H        0.8681849092    0.1452451821   -0.0000000000
3    
Image 6/11, Energy =   -92.8017947000 (+16.562 kcal/mol)
C        0.0224736756   -0.2750250864   -0.0000000000
N       -1.0195045766    0.1940056459   -0.0000000000
H        0.9970309007    0.0810194440   -0.0000000000
3    
Image 7/11, Energy =   -92.8260887546 (+1.317 kcal/mol)
C        0.0443228879   -0.0674650793   -0.0000000000
N       -1.0894305399   -0.1458904040   -0.0000000000
H        1.0451076505    0.2133554866    0.0000000000
3    
Image 8/11, Energy =   -92.8280814083 (+0.067 kcal/mol)
C        0.0338845882    0.0016649372   -0.0000000000
N       -1.0090196829   -0.4589739724   -0.0000000000
H        0.9751350920    0.4573090372    0.0000000000
3    
Image 9/11, Energy =   -92.8281874521 (+0.000 kcal/mol)
C        0.0223527041    0.0207143597    0.0000000000
N       -0.8834261655   -0.6736478060    0.0000000000
H        0.8610734577    0.6529334472    0.0000000000
3    
Image 10/11, Energy =   -92.8275480250 (+0.401 kcal/mol)
C        0.0194260531    0.0213642916    0.0000000000
N       -0.7589320385   -0.8347584655    0.0000000000
H        0.7395059801    0.8133941739    0.0000000000
