3    
Image 0/11, Energy =   -92.8141878332 (+8.725 kcal/mol)
C       -0.7519862172   -0.8272338407    0.0000000000
N        0.0394753340    0.0434721354    0.0000000000
H        0.7125108832    0.7837617053    0.0000000000
3    
Image 1/11, Energy =   -92.8034531849 (+15.461 kcal/mol)
C       -0.5956254745   -0.8648091448   -0.0000000000
N       -0.1387108383    0.2124883681    0.0000000000
H        0.7343363128    0.6523207778   -0.0000000000
3    
Image 2/11, Energy =   -92.7764817166 (+32.386 kcal/mol)
C       -0.4043918136   -0.8547046818   -0.0000000000
N       -0.2951161117    0.3269366766   -0.0000000000
H        0.6995079253    0.5277680085   -0.0000000000
3    
Image 3/11, Energy =   -92.7431232025 (+53.319 kcal/mol)
C       -0.2110795487   -0.7743001513   -0.0000000000
N       -0.4635149116    0.3909141421   -0.0000000000
H        0.6745944604    0.3833860136    0.0000000000
3    
Image 4/11, Energy =   -92.7236631893 (+65.530 kcal/mol)
C       -0.0956779314   -0.6573164226   -0.0000000000
N       -0.6404629331    0.4033275215   -0.0000000000
H        0.7361408644    0.2539889047   -0.0000000000
3    
Image 5/11, Energy =   -92.7474073984 (+50.630 kcal/mol)
C       -0.0342805672   -0.4938413121   -0.0000000000
N       -0.8309514027    0.3586720276   -0.0000000000
H        0.8652319699    0.1351692882    0.0000000000
3    
Image 6/11, Energy =   -92.8009808326 (+17.013 kcal/mol)
C        0.0216089592   -0.2793243225   -0.0000000000
N       -1.0199761206    0.1787153132    0.0000000000
H        0.9983671613    0.1006090140    0.0000000000
3    
Image 7/11, Energy =   -92.8256672830 (+1.522 kcal/mol)
C        0.0474825937   -0.0794298490   -0.0000000000
N       -1.0877965080   -0.1859301137   -0.0000000000
H        1.0403139134    0.2653599661   -0.0000000000
3    
Image 8/11, Energy =   -92.8280215216 (+0.044 kcal/mol)
C        0.0347424016   -0.0045539070   -0.0000000000
N       -0.9847499218   -0.5135052348    0.0000000000
H        0.9500075167    0.5180591427   -0.0000000000
3    
Image 9/11, Energy =   -92.8280922148 (+0.000 kcal/mol)
C        0.0341787878    0.0039511437   -0.0000000000
N       -0.8713434367   -0.6921937878    0.0000000000
H        0.8371646449    0.6882426455   -0.0000000000
3    
Image 10/11, Energy =   -92.8275480250 (+0.341 kcal/mol)
C        0.0194260531    0.0213642916    0.0000000000
N       -0.7589320385   -0.8347584655    0.0000000000
H        0.7395059801    0.8133941739    0.0000000000
