3    
Image 0/11, Energy =   -92.8141878332 (+8.792 kcal/mol)
C       -0.7519862172   -0.8272338407    0.0000000000
N        0.0394753340    0.0434721354    0.0000000000
H        0.7125108832    0.7837617053    0.0000000000
3    
Image 1/11, Energy =   -92.8045889485 (+14.815 kcal/mol)
C       -0.5466552357   -0.9029874265    0.0000000000
N       -0.1436204202    0.1960580981   -0.0000000000
H        0.6902756558    0.7069293336    0.0000000000
3    
Image 2/11, Energy =   -92.7765614444 (+32.403 kcal/mol)
C       -0.3750781612   -0.8687779825    0.0000000000
N       -0.3044993571    0.3178938748   -0.0000000000
H        0.6795775183    0.5508841130    0.0000000000
3    
Image 3/11, Energy =   -92.7424947975 (+53.780 kcal/mol)
C       -0.2119313560   -0.7688320075    0.0000000000
N       -0.4614172650    0.3982291826   -0.0000000000
H        0.6733486157    0.3706028302    0.0000000000
3    
Image 4/11, Energy =   -92.7236070825 (+65.632 kcal/mol)
C       -0.0997256944   -0.6415049325    0.0000000000
N       -0.6426784412    0.4143247743   -0.0000000000
H        0.7424041303    0.2271801635   -0.0000000000
3    
Image 5/11, Energy =   -92.7490525457 (+49.665 kcal/mol)
C       -0.0425367137   -0.4848362316   -0.0000000000
N       -0.8275377645    0.3747355328    0.0000000000
H        0.8700744773    0.1101007040   -0.0000000000
3    
Image 6/11, Energy =   -92.7958692506 (+20.287 kcal/mol)
C       -0.0053821544   -0.3052837989   -0.0000000000
N       -0.9812565300    0.2935066853   -0.0000000000
H        0.9866386844    0.0117771188    0.0000000000
3    
Image 7/11, Energy =   -92.8248315476 (+2.113 kcal/mol)
C        0.0282741431   -0.1002547723   -0.0000000000
N       -1.0948129371    0.0906485948   -0.0000000000
H        1.0665387940    0.0096061779   -0.0000000000
3    
Image 8/11, Energy =   -92.8281036209 (+0.060 kcal/mol)
C        0.0338059756   -0.0077397041   -0.0000000000
N       -1.0800006793   -0.2572957583   -0.0000000000
H        1.0461947036    0.2650354624    0.0000000000
3    
Image 9/11, Energy =   -92.8281986387 (+0.000 kcal/mol)
C        0.0279734982    0.0143962570   -0.0000000000
N       -0.9465302651   -0.5828770853   -0.0000000000
H        0.9185567617    0.5684808283    0.0000000000
3    
Image 10/11, Energy =   -92.8275480251 (+0.408 kcal/mol)
C        0.0194260531    0.0213642916    0.0000000000
N       -0.7589320385   -0.8347584655    0.0000000000
H        0.7395059801    0.8133941739    0.0000000000
