3    
Image 0/11, Energy =   -92.8141878332 (+8.771 kcal/mol)
C       -0.7519862172   -0.8272338407    0.0000000000
N        0.0394753340    0.0434721354    0.0000000000
H        0.7125108832    0.7837617053    0.0000000000
3    
Image 1/11, Energy =   -92.8038965494 (+15.228 kcal/mol)
C       -0.5397569939   -0.9025561593   -0.0000000000
N       -0.1486602347    0.1997460887   -0.0000000000
H        0.6884172286    0.7028100726   -0.0000000000
3    
Image 2/11, Energy =   -92.7751934397 (+33.240 kcal/mol)
C       -0.3520744399   -0.8720845209    0.0000000000
N       -0.3168737194    0.3154195114   -0.0000000000
H        0.6689481593    0.5566650129   -0.0000000000
3    
Image 3/11, Energy =   -92.7411119313 (+54.626 kcal/mol)
C       -0.1879890905   -0.7692375839   -0.0000000000
N       -0.4804713036    0.3867882193   -0.0000000000
H        0.6684603941    0.3824493684   -0.0000000000
3    
Image 4/11, Energy =   -92.7236034457 (+65.613 kcal/mol)
C       -0.0833239244   -0.6422379053   -0.0000000000
N       -0.6567249530    0.3970834010   -0.0000000000
H        0.7400488774    0.2451545080   -0.0000000000
3    
Image 5/11, Energy =   -92.7501294253 (+48.968 kcal/mol)
C       -0.0257426980   -0.4819063057   -0.0000000000
N       -0.8438136038    0.3439707401   -0.0000000000
H        0.8695563017    0.1379355693   -0.0000000000
3    
Image 6/11, Energy =   -92.7971868328 (+19.439 kcal/mol)
C        0.0140385672   -0.2984493541   -0.0000000000
N       -1.0012877117    0.2277200167   -0.0000000000
H        0.9872491441    0.0707293410   -0.0000000000
3    
Image 7/11, Energy =   -92.8237675100 (+2.759 kcal/mol)
C        0.0419245281   -0.1100427267   -0.0000000000
N       -1.0943552848   -0.0292277438   -0.0000000000
H        1.0524307556    0.1392704734   -0.0000000000
3    
Image 8/11, Energy =   -92.8278765060 (+0.181 kcal/mol)
C        0.0396368818   -0.0169023342    0.0000000000
N       -1.0518221746   -0.3499224171   -0.0000000000
H        1.0121852903    0.3668247533   -0.0000000000
3    
Image 9/11, Energy =   -92.8281646504 (+0.000 kcal/mol)
C        0.0307183383    0.0103204037   -0.0000000000
N       -0.9249985516   -0.6148372855   -0.0000000000
H        0.8942802095    0.6045168830    0.0000000000
3    
Image 10/11, Energy =   -92.8275480250 (+0.387 kcal/mol)
C        0.0194260531    0.0213642916    0.0000000000
N       -0.7589320385   -0.8347584655    0.0000000000
H        0.7395059801    0.8133941739    0.0000000000
