3    
Image 0/11, Energy =   -92.8141878332 (+8.802 kcal/mol)
C       -0.7519862172   -0.8272338407    0.0000000000
N        0.0394753340    0.0434721354    0.0000000000
H        0.7125108832    0.7837617053    0.0000000000
3    
Image 1/11, Energy =   -92.8046362758 (+14.795 kcal/mol)
C       -0.5408890774   -0.9073615312    0.0000000000
N       -0.1450903263    0.1950408767   -0.0000000000
H        0.6859794036    0.7123206651    0.0000000000
3    
Image 2/11, Energy =   -92.7764047735 (+32.511 kcal/mol)
C       -0.3778756354   -0.8672919629   -0.0000000000
N       -0.3036466356    0.3202170844   -0.0000000000
H        0.6815222657    0.5470748838    0.0000000000
3    
Image 3/11, Energy =   -92.7438724412 (+52.925 kcal/mol)
C       -0.2243809484   -0.7718054066   -0.0000000000
N       -0.4494856524    0.4008336341   -0.0000000000
H        0.6738666061    0.3709717831    0.0000000000
3    
Image 4/11, Energy =   -92.7236055115 (+65.643 kcal/mol)
C       -0.1060800120   -0.6396102876   -0.0000000000
N       -0.6387660859    0.4214938660   -0.0000000000
H        0.7448460979    0.2181164268    0.0000000000
3    
Image 5/11, Energy =   -92.7509804255 (+48.465 kcal/mol)
C       -0.0466580680   -0.4772243651   -0.0000000000
N       -0.8298747896    0.3832649242   -0.0000000000
H        0.8765328575    0.0939594408    0.0000000000
3    
Image 6/11, Energy =   -92.8014033529 (+16.824 kcal/mol)
C       -0.0071437230   -0.2789584497    0.0000000000
N       -0.9931009873    0.3019025734   -0.0000000000
H        1.0002447050   -0.0229441184   -0.0000000000
3    
Image 7/11, Energy =   -92.8274333533 (+0.490 kcal/mol)
C        0.0306167006   -0.0490548272   -0.0000000000
N       -1.1076645037    0.0531165514    0.0000000000
H        1.0770478080   -0.0040617241    0.0000000000
3    
Image 8/11, Energy =   -92.8282083187 (+0.004 kcal/mol)
C        0.0303967148    0.0061185694   -0.0000000000
N       -1.0641158600   -0.3244745905    0.0000000000
H        1.0337191349    0.3183560211    0.0000000000
3    
Image 9/11, Energy =   -92.8282141080 (+0.000 kcal/mol)
C        0.0257416840    0.0166893690   -0.0000000000
N       -0.9276183291   -0.6149342727    0.0000000000
H        0.9018766398    0.5982448985   -0.0000000000
3    
Image 10/11, Energy =   -92.8275480251 (+0.418 kcal/mol)
C        0.0194260531    0.0213642916    0.0000000000
N       -0.7589320385   -0.8347584655    0.0000000000
H        0.7395059801    0.8133941739    0.0000000000
