3    
Image 0/11, Energy =   -92.8141878332 (+8.792 kcal/mol)
C       -0.7519862172   -0.8272338407    0.0000000000
N        0.0394753340    0.0434721354    0.0000000000
H        0.7125108832    0.7837617053    0.0000000000
3    
Image 1/11, Energy =   -92.8045889485 (+14.816 kcal/mol)
C       -0.5466552357   -0.9029874265    0.0000000000
N       -0.1436204202    0.1960580981   -0.0000000000
H        0.6902756558    0.7069293336    0.0000000000
3    
Image 2/11, Energy =   -92.7765614444 (+32.403 kcal/mol)
C       -0.3750781612   -0.8687779825    0.0000000000
N       -0.3044993571    0.3178938748   -0.0000000000
H        0.6795775183    0.5508841130    0.0000000000
3    
Image 3/11, Energy =   -92.7424947975 (+53.780 kcal/mol)
C       -0.2119313560   -0.7688320075    0.0000000000
N       -0.4614172650    0.3982291826   -0.0000000000
H        0.6733486157    0.3706028302    0.0000000000
3    
Image 4/11, Energy =   -92.7236070825 (+65.632 kcal/mol)
C       -0.0997256944   -0.6415049325    0.0000000000
N       -0.6426784412    0.4143247743   -0.0000000000
H        0.7424041303    0.2271801635   -0.0000000000
3    
Image 5/11, Energy =   -92.7481524384 (+50.230 kcal/mol)
C       -0.0442808132   -0.4881362834    0.0000000000
N       -0.8234399245    0.3774465702    0.0000000000
H        0.8677207308    0.1106897184   -0.0000000000
3    
Image 6/11, Energy =   -92.7938276299 (+21.568 kcal/mol)
C       -0.0081214347   -0.3146819981    0.0000000000
N       -0.9735762239    0.3029046180    0.0000000000
H        0.9816976529    0.0117773851    0.0000000000
3    
Image 7/11, Energy =   -92.8235161097 (+2.939 kcal/mol)
C        0.0268621028   -0.1187381265    0.0000000000
N       -1.0888328278    0.1166898454    0.0000000000
H        1.0619707223    0.0020482860   -0.0000000000
3    
Image 8/11, Energy =   -92.8280886006 (+0.069 kcal/mol)
C        0.0346419839   -0.0092429448   -0.0000000000
N       -1.0809849808   -0.2535719830   -0.0000000000
H        1.0463429959    0.2628149285    0.0000000000
3    
Image 9/11, Energy =   -92.8281990125 (+0.000 kcal/mol)
C        0.0278173875    0.0144080839    0.0000000000
N       -0.9507597875   -0.5758381068    0.0000000000
H        0.9229423965    0.5614300229    0.0000000000
3    
Image 10/11, Energy =   -92.8275480251 (+0.409 kcal/mol)
C        0.0194260531    0.0213642916    0.0000000000
N       -0.7589320385   -0.8347584655    0.0000000000
H        0.7395059801    0.8133941739    0.0000000000
