3    
Image 0/11, Energy =   -92.8141878332 (+8.790 kcal/mol)
C       -0.7519862172   -0.8272338407    0.0000000000
N        0.0394753340    0.0434721354    0.0000000000
H        0.7125108832    0.7837617053    0.0000000000
3    
Image 1/11, Energy =   -92.8044868907 (+14.877 kcal/mol)
C       -0.5473986095   -0.9002435949    0.0000000000
N       -0.1432287696    0.1956591552   -0.0000000000
H        0.6906273791    0.7045844423   -0.0000000000
3    
Image 2/11, Energy =   -92.7761363296 (+32.668 kcal/mol)
C       -0.3636657885   -0.8712328449   -0.0000000000
N       -0.3098857494    0.3151260954   -0.0000000000
H        0.6735515378    0.5561067528   -0.0000000000
3    
Image 3/11, Energy =   -92.7423709342 (+53.856 kcal/mol)
C       -0.1968509911   -0.7727635870   -0.0000000000
N       -0.4711378035    0.3870709808   -0.0000000000
H        0.6679887946    0.3856926099   -0.0000000000
3    
Image 4/11, Energy =   -92.7236068222 (+65.630 kcal/mol)
C       -0.0822536078   -0.6410828099   -0.0000000000
N       -0.6555827559    0.3981417764   -0.0000000000
H        0.7378363637    0.2429410373   -0.0000000000
3    
Image 5/11, Energy =   -92.7505616265 (+48.716 kcal/mol)
C       -0.0229941301   -0.4798868169   -0.0000000000
N       -0.8464637975    0.3398973452   -0.0000000000
H        0.8694579275    0.1399894754   -0.0000000000
3    
Image 6/11, Energy =   -92.7990703490 (+18.276 kcal/mol)
C        0.0213966578   -0.2883760001   -0.0000000000
N       -1.0113914816    0.1987376818   -0.0000000000
H        0.9899948235    0.0896383218   -0.0000000000
3    
Image 7/11, Energy =   -92.8249194803 (+2.056 kcal/mol)
C        0.0453844826   -0.0913929025   -0.0000000000
N       -1.0935363905   -0.0956645287   -0.0000000000
H        1.0481519066    0.1870574341   -0.0000000000
3    
Image 8/11, Energy =   -92.8280280973 (+0.105 kcal/mol)
C        0.0370175842   -0.0066873701   -0.0000000000
N       -1.0302846527   -0.4110521054   -0.0000000000
H        0.9932670660    0.4177394776    0.0000000000
3    
Image 9/11, Energy =   -92.8281955137 (+0.000 kcal/mol)
C        0.0280671053    0.0144446639   -0.0000000000
N       -0.9027497657   -0.6487725120   -0.0000000000
H        0.8746826566    0.6343278490    0.0000000000
3    
Image 10/11, Energy =   -92.8275480250 (+0.406 kcal/mol)
C        0.0194260531    0.0213642916    0.0000000000
N       -0.7589320385   -0.8347584655    0.0000000000
H        0.7395059801    0.8133941739    0.0000000000
