3    
Image 0/11, Energy =   -92.8141878332 (+8.792 kcal/mol)
C       -0.7519862172   -0.8272338407    0.0000000000
N        0.0394753340    0.0434721354    0.0000000000
H        0.7125108832    0.7837617053    0.0000000000
3    
Image 1/11, Energy =   -92.8045889485 (+14.816 kcal/mol)
C       -0.5466552357   -0.9029874265    0.0000000000
N       -0.1436204202    0.1960580981   -0.0000000000
H        0.6902756558    0.7069293336    0.0000000000
3    
Image 2/11, Energy =   -92.7765614444 (+32.403 kcal/mol)
C       -0.3750781612   -0.8687779825    0.0000000000
N       -0.3044993571    0.3178938748   -0.0000000000
H        0.6795775183    0.5508841130    0.0000000000
3    
Image 3/11, Energy =   -92.7424947975 (+53.780 kcal/mol)
C       -0.2119313560   -0.7688320075    0.0000000000
N       -0.4614172650    0.3982291826   -0.0000000000
H        0.6733486157    0.3706028302    0.0000000000
3    
Image 4/11, Energy =   -92.7236070825 (+65.633 kcal/mol)
C       -0.0997256944   -0.6415049325    0.0000000000
N       -0.6426784412    0.4143247743   -0.0000000000
H        0.7424041303    0.2271801635   -0.0000000000
3    
Image 5/11, Energy =   -92.7487168053 (+49.876 kcal/mol)
C       -0.0432556042   -0.4860874803    0.0000000000
N       -0.8259608386    0.3759551053    0.0000000000
H        0.8692164387    0.1101323802   -0.0000000000
3    
Image 6/11, Energy =   -92.7950664195 (+20.791 kcal/mol)
C       -0.0065785224   -0.3090662421    0.0000000000
N       -0.9781050254    0.2979675725    0.0000000000
H        0.9846835453    0.0110986744    0.0000000000
3    
Image 7/11, Energy =   -92.8242134698 (+2.501 kcal/mol)
C        0.0282802212   -0.1095354737    0.0000000000
N       -1.0925191708    0.1018912000   -0.0000000000
H        1.0642389490    0.0076442769    0.0000000000
3    
Image 8/11, Energy =   -92.8281095229 (+0.056 kcal/mol)
C        0.0341788251   -0.0076160414   -0.0000000000
N       -1.0803553383   -0.2572031952    0.0000000000
H        1.0461765130    0.2648192366    0.0000000000
3    
Image 9/11, Energy =   -92.8281991334 (+0.000 kcal/mol)
C        0.0277547167    0.0144500086    0.0000000000
N       -0.9496154415   -0.5777136505    0.0000000000
H        0.9218607209    0.5632636419    0.0000000000
3    
Image 10/11, Energy =   -92.8275480251 (+0.409 kcal/mol)
C        0.0194260531    0.0213642916    0.0000000000
N       -0.7589320385   -0.8347584655    0.0000000000
H        0.7395059801    0.8133941739    0.0000000000
