3    
Image 0/11, Energy =   -92.8141878332 (+8.758 kcal/mol)
C       -0.7519862172   -0.8272338407    0.0000000000
N        0.0394753340    0.0434721354    0.0000000000
H        0.7125108832    0.7837617053    0.0000000000
3    
Image 1/11, Energy =   -92.8037035850 (+15.337 kcal/mol)
C       -0.6211623629   -0.8476296077   -0.0000000000
N       -0.1294554249    0.2146049028   -0.0000000000
H        0.7506177878    0.6330247048   -0.0000000000
3    
Image 2/11, Energy =   -92.7727785044 (+34.743 kcal/mol)
C       -0.4540076516   -0.8122926541    0.0000000000
N       -0.2799837422    0.3637868312   -0.0000000000
H        0.7339913938    0.4485058228    0.0000000000
3    
Image 3/11, Energy =   -92.7430650472 (+53.389 kcal/mol)
C       -0.2899979738   -0.7459370683    0.0000000000
N       -0.4184173245    0.4374937401    0.0000000000
H        0.7084152983    0.3084433285   -0.0000000000
3    
Image 4/11, Energy =   -92.7235214925 (+65.652 kcal/mol)
C       -0.1047777501   -0.6373678682   -0.0000000000
N       -0.6467845449    0.4129004976   -0.0000000000
H        0.7515622951    0.2244673758    0.0000000000
3    
Image 5/11, Energy =   -92.7341726710 (+58.969 kcal/mol)
C        0.0221223145   -0.5548933617   -0.0000000000
N       -0.8311836373    0.2981674469    0.0000000000
H        0.8090613229    0.2567259201   -0.0000000000
3    
Image 6/11, Energy =   -92.7668698758 (+38.451 kcal/mol)
C        0.0858306252   -0.4147148089   -0.0000000000
N       -0.9537319942    0.1134574650    0.0000000000
H        0.8679013690    0.3012573441   -0.0000000000
3    
Image 7/11, Energy =   -92.7621616441 (+41.405 kcal/mol)
C        0.2031132737   -0.2563653019   -0.0000000000
N       -1.0622862860   -0.1987924471   -0.0000000000
H        0.8591730122    0.4551577490   -0.0000000000
3    
Image 8/11, Energy =   -92.8201510827 (+5.016 kcal/mol)
C        0.1124863077   -0.1050975971    0.0000000000
N       -0.9573889854   -0.5102776520   -0.0000000000
H        0.8449026775    0.6153752540    0.0000000000
3    
Image 9/11, Energy =   -92.8281450540 (+0.000 kcal/mol)
C        0.0312615014    0.0135344258   -0.0000000000
N       -0.7716332701   -0.8001224429   -0.0000000000
H        0.7403717585    0.7865880172   -0.0000000000
3    
Image 10/11, Energy =   -92.8275480250 (+0.375 kcal/mol)
C        0.0194260531    0.0213642916    0.0000000000
N       -0.7589320385   -0.8347584655    0.0000000000
H        0.7395059801    0.8133941739    0.0000000000
