3    
Image 0/11, Energy =   -92.8141878332 (+8.749 kcal/mol)
C       -0.7519862172   -0.8272338407    0.0000000000
N        0.0394753340    0.0434721354    0.0000000000
H        0.7125108832    0.7837617053    0.0000000000
3    
Image 1/11, Energy =   -92.8036731509 (+15.347 kcal/mol)
C       -0.6208652158   -0.8475982718   -0.0000000000
N       -0.1297756092    0.2147216468   -0.0000000000
H        0.7506408250    0.6328766251   -0.0000000000
3    
Image 2/11, Energy =   -92.7728739367 (+34.673 kcal/mol)
C       -0.4535262428   -0.8131013166    0.0000000000
N       -0.2802181777    0.3631616114   -0.0000000000
H        0.7337444205    0.4499397052    0.0000000000
3    
Image 3/11, Energy =   -92.7430957068 (+53.360 kcal/mol)
C       -0.2875889710   -0.7476630760    0.0000000000
N       -0.4204203016    0.4360158512    0.0000000000
H        0.7080092725    0.3116472253   -0.0000000000
3    
Image 4/11, Energy =   -92.7235588479 (+65.619 kcal/mol)
C       -0.1040040465   -0.6395534364   -0.0000000000
N       -0.6472671447    0.4137293058   -0.0000000000
H        0.7512711912    0.2258241358    0.0000000000
3    
Image 5/11, Energy =   -92.7361137053 (+57.741 kcal/mol)
C        0.0186983506   -0.5467226011   -0.0000000000
N       -0.8309816737    0.2947429086    0.0000000000
H        0.8122833231    0.2519796976   -0.0000000000
3    
Image 6/11, Energy =   -92.7682580828 (+37.570 kcal/mol)
C        0.0826452119   -0.4102423334   -0.0000000000
N       -0.9561847517    0.1137817167    0.0000000000
H        0.8735395397    0.2964606172   -0.0000000000
3    
Image 7/11, Energy =   -92.7885428099 (+24.841 kcal/mol)
C        0.1686563500   -0.2540650024   -0.0000000000
N       -1.0441645715   -0.2141218174   -0.0000000000
H        0.8755082216    0.4681868199   -0.0000000000
3    
Image 8/11, Energy =   -92.8205269435 (+4.771 kcal/mol)
C        0.1100231778   -0.1040633065    0.0000000000
N       -0.9592011725   -0.5095756648    0.0000000000
H        0.8491779943    0.6136389760    0.0000000000
3    
Image 9/11, Energy =   -92.8281296698 (+0.000 kcal/mol)
C        0.0322511324    0.0122180738   -0.0000000000
N       -0.7749554171   -0.7965376735   -0.0000000000
H        0.7427042747    0.7843195999   -0.0000000000
3    
Image 10/11, Energy =   -92.8275480250 (+0.365 kcal/mol)
C        0.0194260531    0.0213642916    0.0000000000
N       -0.7589320385   -0.8347584655    0.0000000000
H        0.7395059801    0.8133941739    0.0000000000
