3    
Image 0/11, Energy =   -92.8141878332 (+8.780 kcal/mol)
C       -0.7519862172   -0.8272338407    0.0000000000
N        0.0394753340    0.0434721354    0.0000000000
H        0.7125108832    0.7837617053    0.0000000000
3    
Image 1/11, Energy =   -92.8037039457 (+15.359 kcal/mol)
C       -0.5888948914   -0.8709458781   -0.0000000000
N       -0.1388073648    0.2096836685    0.0000000000
H        0.7277022562    0.6612622111    0.0000000000
3    
Image 2/11, Energy =   -92.7767617833 (+32.265 kcal/mol)
C       -0.3934448537   -0.8614519950   -0.0000000000
N       -0.2981658979    0.3226474655   -0.0000000000
H        0.6916107516    0.5388045332    0.0000000000
3    
Image 3/11, Energy =   -92.7431923086 (+53.330 kcal/mol)
C       -0.2046363390   -0.7770077645   -0.0000000000
N       -0.4662489554    0.3888189395   -0.0000000000
H        0.6708852945    0.3881888294    0.0000000000
3    
Image 4/11, Energy =   -92.7234783499 (+65.701 kcal/mol)
C       -0.0971394985   -0.6504828937   -0.0000000000
N       -0.6382143683    0.3958260865   -0.0000000000
H        0.7353538668    0.2546568108   -0.0000000000
3    
Image 5/11, Energy =   -92.7481787456 (+50.201 kcal/mol)
C       -0.0369107291   -0.4867199134   -0.0000000000
N       -0.8305831670    0.3561776602   -0.0000000000
H        0.8674938961    0.1305422568    0.0000000000
3    
Image 6/11, Energy =   -92.8032827275 (+15.623 kcal/mol)
C        0.0189855424   -0.2657299626   -0.0000000000
N       -1.0224599017    0.1872615004    0.0000000000
H        1.0034743592    0.0784684667    0.0000000000
3    
Image 7/11, Energy =   -92.8266047258 (+0.988 kcal/mol)
C        0.0441301701   -0.0619475906   -0.0000000000
N       -1.0912699361   -0.1778094002   -0.0000000000
H        1.0471397650    0.2397569945   -0.0000000000
3    
Image 8/11, Energy =   -92.8281795634 (+0.000 kcal/mol)
C        0.0318514174    0.0061967339   -0.0000000000
N       -0.9906825955   -0.5049083517    0.0000000000
H        0.9588311745    0.4987116187   -0.0000000000
3    
Image 9/11, Energy =   -92.8281597326 (+0.012 kcal/mol)
C        0.0322736937    0.0097416894   -0.0000000000
N       -0.8797128790   -0.6837426589    0.0000000000
H        0.8474391819    0.6740009709    0.0000000000
3    
Image 10/11, Energy =   -92.8275480250 (+0.396 kcal/mol)
C        0.0194260531    0.0213642916    0.0000000000
N       -0.7589320385   -0.8347584655    0.0000000000
H        0.7395059801    0.8133941739    0.0000000000
