3    
Image 0/11, Energy =   -92.8141878332 (+8.735 kcal/mol)
C       -0.7519862172   -0.8272338407    0.0000000000
N        0.0394753340    0.0434721354    0.0000000000
H        0.7125108832    0.7837617053    0.0000000000
3    
Image 1/11, Energy =   -92.8037333868 (+15.296 kcal/mol)
C       -0.6211821198   -0.8469346162    0.0000000000
N       -0.1296485331    0.2135199460    0.0000000000
H        0.7508306529    0.6334146702    0.0000000000
3    
Image 2/11, Energy =   -92.7726711700 (+34.787 kcal/mol)
C       -0.4545021836   -0.8120339344    0.0000000000
N       -0.2796534975    0.3652268554    0.0000000000
H        0.7341556810    0.4468070791    0.0000000000
3    
Image 3/11, Energy =   -92.7429368876 (+53.446 kcal/mol)
C       -0.2934417283   -0.7419556261   -0.0000000000
N       -0.4152249523    0.4375063239    0.0000000000
H        0.7086666806    0.3044493022   -0.0000000000
3    
Image 4/11, Energy =   -92.7231355533 (+65.871 kcal/mol)
C       -0.1082647783   -0.6327363973    0.0000000000
N       -0.6428202554    0.4105882381   -0.0000000000
H        0.7510850337    0.2221481645    0.0000000000
3    
Image 5/11, Energy =   -92.7167849359 (+69.857 kcal/mol)
C       -0.0209489933   -0.5224279472    0.0000000000
N       -0.7853740183    0.2563331922   -0.0000000000
H        0.8063230116    0.2660947602    0.0000000000
3    
Image 6/11, Energy =   -92.7610401396 (+42.086 kcal/mol)
C        0.0663667917   -0.4121194970   -0.0000000000
N       -0.9279277865    0.1020781464   -0.0000000000
H        0.8615609949    0.3100413506    0.0000000000
3    
Image 7/11, Energy =   -92.7384876521 (+56.238 kcal/mol)
C        0.0827686128   -0.2623011629   -0.0000000000
N       -0.9346068338   -0.2046473640   -0.0000000000
H        0.8518382209    0.4669485268    0.0000000000
3    
Image 8/11, Energy =   -92.8178421984 (+6.442 kcal/mol)
C        0.0991704340   -0.1124828234    0.0000000000
N       -0.9412858757   -0.5113728743   -0.0000000000
H        0.8421154416    0.6238557030   -0.0000000000
3    
Image 9/11, Energy =   -92.8281083897 (+0.000 kcal/mol)
C        0.0280281091    0.0135427667   -0.0000000000
N       -0.7656902506   -0.8035398200   -0.0000000000
H        0.7376621309    0.7899970533   -0.0000000000
3    
Image 10/11, Energy =   -92.8275480250 (+0.352 kcal/mol)
C        0.0194260531    0.0213642916    0.0000000000
N       -0.7589320385   -0.8347584655    0.0000000000
H        0.7395059801    0.8133941739    0.0000000000
