3    
Image 0/11, Energy =   -92.8141878332 (+8.793 kcal/mol)
C       -0.7519862172   -0.8272338407    0.0000000000
N        0.0394753340    0.0434721354    0.0000000000
H        0.7125108832    0.7837617053    0.0000000000
3    
Image 1/11, Energy =   -92.8041620868 (+15.084 kcal/mol)
C       -0.5408801025   -0.9041765935    0.0000000000
N       -0.1475749350    0.1983987177    0.0000000000
H        0.6884550375    0.7057778758    0.0000000000
3    
Image 2/11, Energy =   -92.7752743416 (+33.212 kcal/mol)
C       -0.3656438999   -0.8673017051    0.0000000000
N       -0.3111989258    0.3208665860    0.0000000000
H        0.6768428257    0.5464351244    0.0000000000
3    
Image 3/11, Energy =   -92.7421506731 (+53.997 kcal/mol)
C       -0.2068312783   -0.7680746173    0.0000000000
N       -0.4645468613    0.3971152593    0.0000000000
H        0.6713781397    0.3709593633    0.0000000000
3    
Image 4/11, Energy =   -92.7236053797 (+65.635 kcal/mol)
C       -0.0975726311   -0.6409582660    0.0000000000
N       -0.6441716258    0.4130583527    0.0000000000
H        0.7417442569    0.2278999133    0.0000000000
3    
Image 5/11, Energy =   -92.7488732477 (+49.779 kcal/mol)
C       -0.0421442315   -0.4855431576   -0.0000000000
N       -0.8271835430    0.3743773569    0.0000000000
H        0.8693277745    0.1111658004    0.0000000000
3    
Image 6/11, Energy =   -92.7949278358 (+20.879 kcal/mol)
C       -0.0061906036   -0.3096032704   -0.0000000000
N       -0.9781549474    0.2961249240   -0.0000000000
H        0.9843455510    0.0134783485   -0.0000000000
3    
Image 7/11, Energy =   -92.8241609339 (+2.535 kcal/mol)
C        0.0287850303   -0.1099974347    0.0000000000
N       -1.0927305009    0.0963687341   -0.0000000000
H        1.0639454703    0.0136287041    0.0000000000
3    
Image 8/11, Energy =   -92.8281039688 (+0.061 kcal/mol)
C        0.0342911610   -0.0076456269   -0.0000000000
N       -1.0772069795   -0.2696894274   -0.0000000000
H        1.0429158166    0.2773350571   -0.0000000000
3    
Image 9/11, Energy =   -92.8282006667 (+0.000 kcal/mol)
C        0.0274991161    0.0147730641   -0.0000000000
N       -0.9461561213   -0.5835103515   -0.0000000000
H        0.9186570017    0.5687372892   -0.0000000000
3    
Image 10/11, Energy =   -92.8275480250 (+0.410 kcal/mol)
C        0.0194260531    0.0213642916    0.0000000000
N       -0.7589320385   -0.8347584655    0.0000000000
H        0.7395059801    0.8133941739    0.0000000000
