3    
Image 0/11, Energy =   -92.8141878331 (+8.793 kcal/mol)
C       -0.7519862172   -0.8272338407    0.0000000000
N        0.0394753340    0.0434721354    0.0000000000
H        0.7125108832    0.7837617053    0.0000000000
3    
Image 1/11, Energy =   -92.8047541568 (+14.713 kcal/mol)
C       -0.5496798742   -0.9003721649   -0.0000000000
N       -0.1408853572    0.1941547602    0.0000000000
H        0.6905652323    0.7062174075   -0.0000000000
3    
Image 2/11, Energy =   -92.7762378118 (+32.607 kcal/mol)
C       -0.3665907040   -0.8706168447   -0.0000000000
N       -0.3087322379    0.3157929908    0.0000000000
H        0.6753229430    0.5548238570   -0.0000000000
3    
Image 3/11, Energy =   -92.7422562929 (+53.931 kcal/mol)
C       -0.1999728011   -0.7726250326    0.0000000000
N       -0.4711442370    0.3892899153    0.0000000000
H        0.6711170390    0.3833351209   -0.0000000000
3    
Image 4/11, Energy =   -92.7236114151 (+65.631 kcal/mol)
C       -0.0851986578   -0.6406169886    0.0000000000
N       -0.6572849943    0.4001274341    0.0000000000
H        0.7424836531    0.2404895582   -0.0000000000
3    
Image 5/11, Energy =   -92.7520865583 (+47.763 kcal/mol)
C       -0.0224865732   -0.4746659424    0.0000000000
N       -0.8520799911    0.3379755093    0.0000000000
H        0.8745665651    0.1366904367   -0.0000000000
3    
Image 6/11, Energy =   -92.8002337771 (+17.550 kcal/mol)
C        0.0236031538   -0.2824771843    0.0000000000
N       -1.0162004695    0.1881835240    0.0000000000
H        0.9925973172    0.0942936638   -0.0000000000
3    
Image 7/11, Energy =   -92.8253423090 (+1.794 kcal/mol)
C        0.0456185624   -0.0843505596    0.0000000000
N       -1.0928092244   -0.1176674635    0.0000000000
H        1.0471906629    0.2020180262   -0.0000000000
3    
Image 8/11, Energy =   -92.8280343760 (+0.105 kcal/mol)
C        0.0368149507   -0.0058525364    0.0000000000
N       -1.0221389781   -0.4311178577    0.0000000000
H        0.9853240275    0.4369703963   -0.0000000000
3    
Image 9/11, Energy =   -92.8282011313 (+0.000 kcal/mol)
C        0.0267753901    0.0160360862    0.0000000000
N       -0.8954064126   -0.6589974485    0.0000000000
H        0.8686310203    0.6429613633   -0.0000000000
3    
Image 10/11, Energy =   -92.8275480250 (+0.410 kcal/mol)
C        0.0194260531    0.0213642916    0.0000000000
N       -0.7589320385   -0.8347584655    0.0000000000
H        0.7395059801    0.8133941739    0.0000000000
