3    
Image 0/11, Energy =   -92.8141878331 (+8.787 kcal/mol)
C       -0.7519862172   -0.8272338407    0.0000000000
N        0.0394753340    0.0434721354    0.0000000000
H        0.7125108832    0.7837617053    0.0000000000
3    
Image 1/11, Energy =   -92.8041997168 (+15.054 kcal/mol)
C       -0.5450411246   -0.9005790912    0.0000000000
N       -0.1456722849    0.1978843271   -0.0000000000
H        0.6907134102    0.7026947662   -0.0000000000
3    
Image 2/11, Energy =   -92.7755881091 (+33.008 kcal/mol)
C       -0.3590627286   -0.8706033807    0.0000000000
N       -0.3131787830    0.3157072402    0.0000000000
H        0.6722415125    0.5548961439   -0.0000000000
3    
Image 3/11, Energy =   -92.7415011936 (+54.398 kcal/mol)
C       -0.1941171740   -0.7690216327    0.0000000000
N       -0.4754201365    0.3889999713    0.0000000000
H        0.6695373115    0.3800216651   -0.0000000000
3    
Image 4/11, Energy =   -92.7236066232 (+65.627 kcal/mol)
C       -0.0861027223   -0.6431650560    0.0000000000
N       -0.6511366604    0.4007274570    0.0000000000
H        0.7372393836    0.2424376027   -0.0000000000
3    
Image 5/11, Energy =   -92.7512362670 (+48.289 kcal/mol)
C       -0.0249076819   -0.4773508899    0.0000000000
N       -0.8473785626    0.3427002839    0.0000000000
H        0.8722862454    0.1346506098   -0.0000000000
3    
Image 6/11, Energy =   -92.7995418058 (+17.977 kcal/mol)
C        0.0174223051   -0.2867057229    0.0000000000
N       -1.0100743930    0.2127021606    0.0000000000
H        0.9926520883    0.0740035659   -0.0000000000
3    
Image 7/11, Energy =   -92.8245536061 (+2.282 kcal/mol)
C        0.0443294941   -0.0982113994    0.0000000000
N       -1.0948178833   -0.0732552441    0.0000000000
H        1.0504883896    0.1714666464   -0.0000000000
3    
Image 8/11, Energy =   -92.8279771798 (+0.134 kcal/mol)
C        0.0383284056   -0.0107080694    0.0000000000
N       -1.0380064374   -0.3910085962    0.0000000000
H        0.9996780309    0.4017166678   -0.0000000000
3    
Image 9/11, Energy =   -92.8281902966 (+0.000 kcal/mol)
C        0.0285872395    0.0135958829    0.0000000000
N       -0.9092232980   -0.6392331970    0.0000000000
H        0.8806360556    0.6256373151   -0.0000000000
3    
Image 10/11, Energy =   -92.8275480250 (+0.403 kcal/mol)
C        0.0194260531    0.0213642916    0.0000000000
N       -0.7589320385   -0.8347584655    0.0000000000
H        0.7395059801    0.8133941739    0.0000000000
