3    
Image 0/11, Energy =   -92.8141878331 (+8.760 kcal/mol)
C       -0.7519862172   -0.8272338407    0.0000000000
N        0.0394753340    0.0434721354    0.0000000000
H        0.7125108832    0.7837617053    0.0000000000
3    
Image 1/11, Energy =   -92.8034060297 (+15.526 kcal/mol)
C       -0.5461365487   -0.8962157132    0.0000000000
N       -0.1502669449    0.2044891421    0.0000000000
H        0.6964034940    0.6917265735   -0.0000000000
3    
Image 2/11, Energy =   -92.7741021987 (+33.914 kcal/mol)
C       -0.3555261555   -0.8659820094    0.0000000000
N       -0.3182529514    0.3219776671    0.0000000000
H        0.6737791076    0.5440043455   -0.0000000000
3    
Image 3/11, Energy =   -92.7412344467 (+54.539 kcal/mol)
C       -0.1936451054   -0.7677439778    0.0000000000
N       -0.4761892051    0.3907702438   -0.0000000000
H        0.6698343114    0.3769737377   -0.0000000000
3    
Image 4/11, Energy =   -92.7236066442 (+65.601 kcal/mol)
C       -0.0862862385   -0.6432026487    0.0000000000
N       -0.6511402412    0.4011719837    0.0000000000
H        0.7374264805    0.2420306688   -0.0000000000
3    
Image 5/11, Energy =   -92.7464245581 (+51.282 kcal/mol)
C       -0.0320736146   -0.4956455601    0.0000000000
N       -0.8272023830    0.3557943770    0.0000000000
H        0.8592759984    0.1398511869   -0.0000000000
3    
Image 6/11, Energy =   -92.7906537885 (+23.528 kcal/mol)
C        0.0047706950   -0.3282594705    0.0000000000
N       -0.9765990045    0.2637164707    0.0000000000
H        0.9718283099    0.0645430035   -0.0000000000
3    
Image 7/11, Energy =   -92.8214629416 (+4.195 kcal/mol)
C        0.0357735370   -0.1390014350    0.0000000000
N       -1.0868248909    0.0577345462   -0.0000000000
H        1.0510513530    0.0812668921   -0.0000000000
3    
Image 8/11, Energy =   -92.8277025636 (+0.279 kcal/mol)
C        0.0404885886   -0.0263630905    0.0000000000
N       -1.0724401844   -0.2762205105   -0.0000000000
H        1.0319515930    0.3025836029   -0.0000000000
3    
Image 9/11, Energy =   -92.8281478579 (+0.000 kcal/mol)
C        0.0316017788    0.0092714484    0.0000000000
N       -0.9462214524   -0.5804281994    0.0000000000
H        0.9146196693    0.5711567518   -0.0000000000
3    
Image 10/11, Energy =   -92.8275480250 (+0.376 kcal/mol)
C        0.0194260531    0.0213642916    0.0000000000
N       -0.7589320385   -0.8347584655    0.0000000000
H        0.7395059801    0.8133941739    0.0000000000
