3    
Image 0/11, Energy =   -92.8141878332 (+8.791 kcal/mol)
C       -0.7519862172   -0.8272338407    0.0000000000
N        0.0394753340    0.0434721354    0.0000000000
H        0.7125108832    0.7837617053    0.0000000000
3    
Image 1/11, Energy =   -92.8041620868 (+15.083 kcal/mol)
C       -0.5408801025   -0.9041765935    0.0000000000
N       -0.1475749350    0.1983987177    0.0000000000
H        0.6884550375    0.7057778758    0.0000000000
3    
Image 2/11, Energy =   -92.7752743416 (+33.210 kcal/mol)
C       -0.3656438999   -0.8673017051    0.0000000000
N       -0.3111989258    0.3208665860    0.0000000000
H        0.6768428257    0.5464351244    0.0000000000
3    
Image 3/11, Energy =   -92.7421506731 (+53.995 kcal/mol)
C       -0.2068312783   -0.7680746173    0.0000000000
N       -0.4645468613    0.3971152593    0.0000000000
H        0.6713781397    0.3709593633    0.0000000000
3    
Image 4/11, Energy =   -92.7236053797 (+65.633 kcal/mol)
C       -0.0975726311   -0.6409582660    0.0000000000
N       -0.6441716258    0.4130583527    0.0000000000
H        0.7417442569    0.2278999133    0.0000000000
3    
Image 5/11, Energy =   -92.7475143962 (+50.630 kcal/mol)
C       -0.0439689046   -0.4906849324   -0.0000000000
N       -0.8216224046    0.3772085639    0.0000000000
H        0.8655913092    0.1134763660    0.0000000000
3    
Image 6/11, Energy =   -92.7926414174 (+22.312 kcal/mol)
C       -0.0088236835   -0.3199364478    0.0000000000
N       -0.9699754303    0.3049787346   -0.0000000000
H        0.9787991137    0.0149577093   -0.0000000000
3    
Image 7/11, Energy =   -92.8228164604 (+3.377 kcal/mol)
C        0.0257224682   -0.1274403784   -0.0000000000
N       -1.0854213727    0.1302268273   -0.0000000000
H        1.0596989037   -0.0027864509    0.0000000000
3    
Image 8/11, Energy =   -92.8280609728 (+0.086 kcal/mol)
C        0.0349759400   -0.0116825700   -0.0000000000
N       -1.0831956823   -0.2431091188   -0.0000000000
H        1.0482197396    0.2547916895   -0.0000000000
3    
Image 9/11, Energy =   -92.8281979018 (+0.000 kcal/mol)
C        0.0281594120    0.0140081015   -0.0000000000
N       -0.9525455887   -0.5728852414   -0.0000000000
H        0.9243861738    0.5588771419   -0.0000000000
3    
Image 10/11, Energy =   -92.8275480250 (+0.408 kcal/mol)
C        0.0194260531    0.0213642916    0.0000000000
N       -0.7589320385   -0.8347584655    0.0000000000
H        0.7395059801    0.8133941739    0.0000000000
