3    
Image 0/11, Energy =   -92.8141878331 (+8.798 kcal/mol)
C       -0.7519862172   -0.8272338407    0.0000000000
N        0.0394753340    0.0434721354    0.0000000000
H        0.7125108832    0.7837617053    0.0000000000
3    
Image 1/11, Energy =   -92.8048239428 (+14.674 kcal/mol)
C       -0.5569432588   -0.8964502237   -0.0000000000
N       -0.1388078115    0.1949602251    0.0000000000
H        0.6957510710    0.7014900016   -0.0000000000
3    
Image 2/11, Energy =   -92.7763938375 (+32.514 kcal/mol)
C       -0.3706148077   -0.8698752567   -0.0000000000
N       -0.3066680036    0.3169597885    0.0000000000
H        0.6772828124    0.5529154716   -0.0000000000
3    
Image 3/11, Energy =   -92.7427847670 (+53.604 kcal/mol)
C       -0.2056010283   -0.7723638590    0.0000000000
N       -0.4656986094    0.3890871539    0.0000000000
H        0.6712996387    0.3832767086   -0.0000000000
3    
Image 4/11, Energy =   -92.7236127721 (+65.634 kcal/mol)
C       -0.0835637873   -0.6399148399    0.0000000000
N       -0.6567274332    0.4009409295    0.0000000000
H        0.7402912214    0.2389739142   -0.0000000000
3    
Image 5/11, Energy =   -92.7515528302 (+48.102 kcal/mol)
C       -0.0201020557   -0.4760208751    0.0000000000
N       -0.8515704744    0.3336809839    0.0000000000
H        0.8716725312    0.1423398948   -0.0000000000
3    
Image 6/11, Energy =   -92.8010926906 (+17.015 kcal/mol)
C        0.0251991822   -0.2780309014    0.0000000000
N       -1.0195767192    0.1812513131    0.0000000000
H        0.9943775383    0.0967795916   -0.0000000000
3    
Image 7/11, Energy =   -92.8258300550 (+1.492 kcal/mol)
C        0.0451437976   -0.0764323246    0.0000000000
N       -1.0926720076   -0.1381608043    0.0000000000
H        1.0475282114    0.2145931323   -0.0000000000
3    
Image 8/11, Energy =   -92.8280942975 (+0.071 kcal/mol)
C        0.0353467781   -0.0022432188    0.0000000000
N       -1.0143560122   -0.4515064848    0.0000000000
H        0.9790092348    0.4537497057   -0.0000000000
3    
Image 9/11, Energy =   -92.8282077129 (+0.000 kcal/mol)
C        0.0261657070    0.0166762282    0.0000000000
N       -0.8896717077   -0.6675837796   -0.0000000000
H        0.8635059988    0.6509075526   -0.0000000000
3    
Image 10/11, Energy =   -92.8275480250 (+0.414 kcal/mol)
C        0.0194260531    0.0213642916    0.0000000000
N       -0.7589320385   -0.8347584655    0.0000000000
H        0.7395059801    0.8133941739    0.0000000000
