3    
Image 0/11, Energy =   -92.8141878331 (+8.774 kcal/mol)
C       -0.7519862172   -0.8272338407    0.0000000000
N        0.0394753340    0.0434721354    0.0000000000
H        0.7125108832    0.7837617053    0.0000000000
3    
Image 1/11, Energy =   -92.8038832322 (+15.241 kcal/mol)
C       -0.5862222571   -0.8732352806   -0.0000000000
N       -0.1384606978    0.2074010249    0.0000000000
H        0.7246829551    0.6658342577    0.0000000000
3    
Image 2/11, Energy =   -92.7768391047 (+32.211 kcal/mol)
C       -0.3919701876   -0.8618490611   -0.0000000000
N       -0.2979288025    0.3213717125    0.0000000000
H        0.6898989908    0.5404773524    0.0000000000
3    
Image 3/11, Energy =   -92.7434924029 (+53.136 kcal/mol)
C       -0.2118867981   -0.7739762739   -0.0000000000
N       -0.4598551169    0.3903491763    0.0000000000
H        0.6717419162    0.3836271013   -0.0000000000
3    
Image 4/11, Energy =   -92.7236208753 (+65.606 kcal/mol)
C       -0.0897699106   -0.6516103892    0.0000000000
N       -0.6442905690    0.4042196978    0.0000000000
H        0.7340604806    0.2473906950   -0.0000000000
3    
Image 5/11, Energy =   -92.7497395214 (+49.216 kcal/mol)
C       -0.0227564703   -0.4839237858    0.0000000000
N       -0.8440602198    0.3430015158    0.0000000000
H        0.8668166917    0.1409222739   -0.0000000000
3    
Image 6/11, Energy =   -92.8055524158 (+14.193 kcal/mol)
C        0.0266960932   -0.2512711675    0.0000000000
N       -1.0306754989    0.1659452335    0.0000000000
H        1.0039794069    0.0853259378   -0.0000000000
3    
Image 7/11, Energy =   -92.8264190832 (+1.099 kcal/mol)
C        0.0460598551   -0.0584266748    0.0000000000
N       -1.0836602228   -0.1885761832    0.0000000000
H        1.0376003705    0.2470028613   -0.0000000000
3    
Image 8/11, Energy =   -92.8280656554 (+0.066 kcal/mol)
C        0.0300061702    0.0088996516    0.0000000000
N       -0.9919563897   -0.4917514921   -0.0000000000
H        0.9619502211    0.4828518427   -0.0000000000
3    
Image 9/11, Energy =   -92.8281707489 (+0.000 kcal/mol)
C        0.0238003982    0.0176662913   -0.0000000000
N       -0.8728083884   -0.6865528116    0.0000000000
H        0.8490079892    0.6688865214    0.0000000000
3    
Image 10/11, Energy =   -92.8275480250 (+0.391 kcal/mol)
C        0.0194260531    0.0213642916    0.0000000000
N       -0.7589320385   -0.8347584655    0.0000000000
H        0.7395059801    0.8133941739    0.0000000000
