3    
Image 0/11, Energy =   -92.8141878331 (+8.774 kcal/mol)
C       -0.7519862172   -0.8272338407    0.0000000000
N        0.0394753340    0.0434721354    0.0000000000
H        0.7125108832    0.7837617053    0.0000000000
3    
Image 1/11, Energy =   -92.8038674917 (+15.250 kcal/mol)
C       -0.5453634626   -0.8987828864    0.0000000000
N       -0.1474525431    0.2006956695   -0.0000000000
H        0.6928160063    0.6980872191   -0.0000000000
3    
Image 2/11, Energy =   -92.7741590033 (+33.892 kcal/mol)
C       -0.3548171755   -0.8665338625    0.0000000000
N       -0.3182995949    0.3215205285    0.0000000000
H        0.6731167711    0.5450133373   -0.0000000000
3    
Image 3/11, Energy =   -92.7412828289 (+54.522 kcal/mol)
C       -0.1931892927   -0.7679586854    0.0000000000
N       -0.4760771535    0.3903933447   -0.0000000000
H        0.6692664471    0.3775653444   -0.0000000000
3    
Image 4/11, Energy =   -92.7236066442 (+65.614 kcal/mol)
C       -0.0862862385   -0.6432026487    0.0000000000
N       -0.6511402412    0.4011719837    0.0000000000
H        0.7374264805    0.2420306688   -0.0000000000
3    
Image 5/11, Energy =   -92.7484328632 (+50.035 kcal/mol)
C       -0.0293242561   -0.4879093485    0.0000000000
N       -0.8355142722    0.3511004917    0.0000000000
H        0.8648385291    0.1368088606   -0.0000000000
3    
Image 6/11, Energy =   -92.7953045915 (+20.623 kcal/mol)
C        0.0108673286   -0.3072225174    0.0000000000
N       -0.9936234485    0.2404957555    0.0000000000
H        0.9827561204    0.0667267655   -0.0000000000
3    
Image 7/11, Energy =   -92.8235035518 (+2.928 kcal/mol)
C        0.0404792086   -0.1141507635    0.0000000000
N       -1.0940807206   -0.0086179899    0.0000000000
H        1.0536015115    0.1227687564   -0.0000000000
3    
Image 8/11, Energy =   -92.8278390562 (+0.207 kcal/mol)
C        0.0400071563   -0.0192644316    0.0000000000
N       -1.0569240262   -0.3338318584    0.0000000000
H        1.0169168679    0.3530962919   -0.0000000000
3    
Image 9/11, Energy =   -92.8281693438 (+0.000 kcal/mol)
C        0.0304751269    0.0109967524    0.0000000000
N       -0.9282389939   -0.6100800534    0.0000000000
H        0.8977638634    0.5990833020   -0.0000000000
3    
Image 10/11, Energy =   -92.8275480250 (+0.390 kcal/mol)
C        0.0194260531    0.0213642916    0.0000000000
N       -0.7589320385   -0.8347584655    0.0000000000
H        0.7395059801    0.8133941739    0.0000000000
