3    
Image 0/11, Energy =   -92.8141878332 (+8.802 kcal/mol)
C       -0.7519862172   -0.8272338407    0.0000000000
N        0.0394753340    0.0434721354    0.0000000000
H        0.7125108832    0.7837617053    0.0000000000
3    
Image 1/11, Energy =   -92.8052048947 (+14.439 kcal/mol)
C       -0.5481628562   -0.9056101610    0.0000000000
N       -0.1393830336    0.1915579222    0.0000000000
H        0.6875458899    0.7140522388    0.0000000000
3    
Image 2/11, Energy =   -92.7764947654 (+32.455 kcal/mol)
C       -0.3819098337   -0.8658082611   -0.0000000000
N       -0.3020006511    0.3210342293    0.0000000000
H        0.6839104848    0.5447740371    0.0000000000
3    
Image 3/11, Energy =   -92.7438698119 (+52.928 kcal/mol)
C       -0.2264545293   -0.7712647674   -0.0000000000
N       -0.4485576502    0.4019511558    0.0000000000
H        0.6750121795    0.3693136169    0.0000000000
3    
Image 4/11, Energy =   -92.7236059901 (+65.643 kcal/mol)
C       -0.1061811537   -0.6387259266   -0.0000000000
N       -0.6401450582    0.4214046679    0.0000000000
H        0.7463262118    0.2173212587    0.0000000000
3    
Image 5/11, Energy =   -92.7544927638 (+46.262 kcal/mol)
C       -0.0438466288   -0.4644417879   -0.0000000000
N       -0.8423399715    0.3791244195    0.0000000000
H        0.8861866004    0.0853173737    0.0000000000
3    
Image 6/11, Energy =   -92.8043730768 (+14.961 kcal/mol)
C       -0.0033600906   -0.2636170405    0.0000000000
N       -1.0044392286    0.2888635883    0.0000000000
H        1.0077993225   -0.0252465424   -0.0000000000
3    
Image 7/11, Energy =   -92.8278593443 (+0.223 kcal/mol)
C        0.0327112667   -0.0304768489   -0.0000000000
N       -1.1093339031   -0.0440132676    0.0000000000
H        1.0766226374    0.0744901223   -0.0000000000
3    
Image 8/11, Energy =   -92.8282108789 (+0.003 kcal/mol)
C        0.0294010196    0.0095622074    0.0000000000
N       -1.0327888008   -0.4138820957    0.0000000000
H        1.0033877812    0.4043198970   -0.0000000000
3    
Image 9/11, Energy =   -92.8282151850 (+0.000 kcal/mol)
C        0.0248625291    0.0180433729   -0.0000000000
N       -0.8975562246   -0.6586177062    0.0000000000
H        0.8726936948    0.6405743345    0.0000000000
3    
Image 10/11, Energy =   -92.8275480250 (+0.419 kcal/mol)
C        0.0194260531    0.0213642916    0.0000000000
N       -0.7589320385   -0.8347584655    0.0000000000
H        0.7395059801    0.8133941739    0.0000000000
