3    
Image 0/11, Energy =   -92.8141878331 (+8.639 kcal/mol)
C       -0.7519862172   -0.8272338407    0.0000000000
N        0.0394753340    0.0434721354    0.0000000000
H        0.7125108832    0.7837617053    0.0000000000
3    
Image 1/11, Energy =   -92.8030986042 (+15.598 kcal/mol)
C       -0.6135002295   -0.8502833864   -0.0000000000
N       -0.1356187727    0.2182956433   -0.0000000000
H        0.7491190022    0.6319877433    0.0000000000
3    
Image 2/11, Energy =   -92.7748330947 (+33.335 kcal/mol)
C       -0.4411270519   -0.8292978195   -0.0000000000
N       -0.2841258498    0.3482396058   -0.0000000000
H        0.7252529018    0.4810582150    0.0000000000
3    
Image 3/11, Energy =   -92.7430720174 (+53.265 kcal/mol)
C       -0.2484557041   -0.7643116123   -0.0000000000
N       -0.4463089884    0.4107749395    0.0000000000
H        0.6947646930    0.3535366764    0.0000000000
3    
Image 4/11, Energy =   -92.7236238002 (+65.469 kcal/mol)
C       -0.1081580661   -0.6541767178   -0.0000000000
N       -0.6344564648    0.4090807082    0.0000000000
H        0.7426145321    0.2450960136   -0.0000000000
3    
Image 5/11, Energy =   -92.7451489023 (+51.962 kcal/mol)
C       -0.0214622786   -0.5042178713    0.0000000000
N       -0.8341242848    0.3341075829    0.0000000000
H        0.8555865644    0.1701102925   -0.0000000000
3    
Image 6/11, Energy =   -92.7891254762 (+24.366 kcal/mol)
C        0.0468949957   -0.3314587087   -0.0000000000
N       -0.9993900782    0.1256747299    0.0000000000
H        0.9524950862    0.2057839834    0.0000000000
3    
Image 7/11, Energy =   -92.8185354879 (+5.911 kcal/mol)
C        0.0894338278   -0.1452579881    0.0000000000
N       -1.0615383747   -0.2448547488    0.0000000000
H        0.9721045507    0.3901127397   -0.0000000000
3    
Image 8/11, Energy =   -92.8255841042 (+1.488 kcal/mol)
C        0.0735191899   -0.0591430182   -0.0000000000
N       -0.9893878419   -0.5027627739   -0.0000000000
H        0.9158686555    0.5619057942   -0.0000000000
3    
Image 9/11, Energy =   -92.8279555941 (+0.000 kcal/mol)
C        0.0401811873   -0.0025243676   -0.0000000000
N       -0.8595233583   -0.7078460140    0.0000000000
H        0.8193421709    0.7103703819    0.0000000000
3    
Image 10/11, Energy =   -92.8275480250 (+0.256 kcal/mol)
C        0.0194260531    0.0213642916    0.0000000000
N       -0.7589320385   -0.8347584655    0.0000000000
H        0.7395059801    0.8133941739    0.0000000000
