3    
Image 0/11, Energy =   -92.8141878331 (+8.384 kcal/mol)
C       -0.7519862172   -0.8272338407    0.0000000000
N        0.0394753340    0.0434721354    0.0000000000
H        0.7125108832    0.7837617053    0.0000000000
3    
Image 1/11, Energy =   -92.8034438989 (+15.126 kcal/mol)
C       -0.6188772256   -0.8478182121    0.0000000000
N       -0.1315924158    0.2162480623   -0.0000000000
H        0.7504696414    0.6315701498    0.0000000000
3    
Image 2/11, Energy =   -92.7734805965 (+33.928 kcal/mol)
C       -0.4515732523   -0.8173111849   -0.0000000000
N       -0.2808070223    0.3593712578   -0.0000000000
H        0.7323802746    0.4579399275    0.0000000000
3    
Image 3/11, Energy =   -92.7429883325 (+53.062 kcal/mol)
C       -0.2755099970   -0.7533939330   -0.0000000000
N       -0.4296531903    0.4290338559   -0.0000000000
H        0.7051631874    0.3243600792    0.0000000000
3    
Image 4/11, Energy =   -92.7235696778 (+65.247 kcal/mol)
C       -0.1120480369   -0.6470359977    0.0000000000
N       -0.6346310194    0.4163943372    0.0000000000
H        0.7466790569    0.2306416651    0.0000000000
3    
Image 5/11, Energy =   -92.7399155959 (+54.990 kcal/mol)
C       -0.0068104708   -0.5140515732    0.0000000000
N       -0.8238487833    0.2952662649    0.0000000000
H        0.8306592571    0.2187853129    0.0000000000
3    
Image 6/11, Energy =   -92.7745450875 (+33.260 kcal/mol)
C        0.0667396711   -0.3875380193   -0.0000000000
N       -0.9662622742    0.1187515896   -0.0000000000
H        0.8995226056    0.2687864325    0.0000000000
3    
Image 7/11, Energy =   -92.8085277781 (+11.935 kcal/mol)
C        0.1054954712   -0.2057215208   -0.0000000000
N       -1.0183455427   -0.2593386053   -0.0000000000
H        0.9128500761    0.4650601297   -0.0000000000
3    
Image 8/11, Energy =   -92.8216660400 (+3.691 kcal/mol)
C        0.1037503122   -0.0978517901   -0.0000000000
N       -0.9789909279   -0.5014181282   -0.0000000000
H        0.8752406202    0.5992699197   -0.0000000000
3    
Image 9/11, Energy =   -92.8265714901 (+0.613 kcal/mol)
C        0.0498012511   -0.0240473832   -0.0000000000
N       -0.8523449211   -0.7012833506    0.0000000000
H        0.8025436700    0.7253307339    0.0000000000
3    
Image 10/11, Energy =   -92.8275480250 (+0.000 kcal/mol)
C        0.0194260531    0.0213642916    0.0000000000
N       -0.7589320385   -0.8347584655    0.0000000000
H        0.7395059801    0.8133941739    0.0000000000
