3    
Image 0/11, Energy =   -92.8141878331 (+8.781 kcal/mol)
C       -0.7519862172   -0.8272338407    0.0000000000
N        0.0394753340    0.0434721354    0.0000000000
H        0.7125108832    0.7837617053    0.0000000000
3    
Image 1/11, Energy =   -92.8040536754 (+15.141 kcal/mol)
C       -0.5437508133   -0.9007762205    0.0000000000
N       -0.1467721119    0.1990260306   -0.0000000000
H        0.6905229259    0.7017501920   -0.0000000000
3    
Image 2/11, Energy =   -92.7749466512 (+33.406 kcal/mol)
C       -0.3554271583   -0.8696127560    0.0000000000
N       -0.3160030444    0.3179515727    0.0000000000
H        0.6714302035    0.5516611867   -0.0000000000
3    
Image 3/11, Energy =   -92.7413287629 (+54.501 kcal/mol)
C       -0.1929690065   -0.7681965348    0.0000000000
N       -0.4760091014    0.3899963513   -0.0000000000
H        0.6689781088    0.3782001872   -0.0000000000
3    
Image 4/11, Energy =   -92.7236062435 (+65.622 kcal/mol)
C       -0.0857001264   -0.6434818745    0.0000000000
N       -0.6506511948    0.4012958476    0.0000000000
H        0.7363513221    0.2421860308   -0.0000000000
3    
Image 5/11, Energy =   -92.7502098370 (+48.928 kcal/mol)
C       -0.0262765757   -0.4810114102    0.0000000000
N       -0.8430247080    0.3456436579    0.0000000000
H        0.8693012846    0.1353677561   -0.0000000000
3    
Image 6/11, Energy =   -92.7979382019 (+18.978 kcal/mol)
C        0.0143024704   -0.2946475181    0.0000000000
N       -1.0032969697    0.2260473185    0.0000000000
H        0.9889944997    0.0686002031   -0.0000000000
3    
Image 7/11, Energy =   -92.8241510098 (+2.530 kcal/mol)
C        0.0423997512   -0.1050115804    0.0000000000
N       -1.0953820759   -0.0440870121    0.0000000000
H        1.0529823246    0.1490985954   -0.0000000000
3    
Image 8/11, Energy =   -92.8279198880 (+0.164 kcal/mol)
C        0.0391543895   -0.0149761718    0.0000000000
N       -1.0473025181   -0.3649976612    0.0000000000
H        1.0081481271    0.3799738351   -0.0000000000
3    
Image 9/11, Energy =   -92.8281820344 (+0.000 kcal/mol)
C        0.0295008861    0.0122076389    0.0000000000
N       -0.9180548457   -0.6260485849    0.0000000000
H        0.8885539563    0.6138409470   -0.0000000000
3    
Image 10/11, Energy =   -92.8275480250 (+0.398 kcal/mol)
C        0.0194260531    0.0213642916    0.0000000000
N       -0.7589320385   -0.8347584655    0.0000000000
H        0.7395059801    0.8133941739    0.0000000000
