3    
Image 0/11, Energy =   -92.8141878332 (+8.794 kcal/mol)
C       -0.7519862172   -0.8272338407    0.0000000000
N        0.0394753340    0.0434721354    0.0000000000
H        0.7125108832    0.7837617053    0.0000000000
3    
Image 1/11, Energy =   -92.8041620868 (+15.085 kcal/mol)
C       -0.5408801025   -0.9041765935    0.0000000000
N       -0.1475749350    0.1983987177    0.0000000000
H        0.6884550375    0.7057778758    0.0000000000
3    
Image 2/11, Energy =   -92.7752743416 (+33.212 kcal/mol)
C       -0.3656438999   -0.8673017051    0.0000000000
N       -0.3111989258    0.3208665860    0.0000000000
H        0.6768428257    0.5464351244    0.0000000000
3    
Image 3/11, Energy =   -92.7421506731 (+53.998 kcal/mol)
C       -0.2068312783   -0.7680746173    0.0000000000
N       -0.4645468613    0.3971152593    0.0000000000
H        0.6713781397    0.3709593633    0.0000000000
3    
Image 4/11, Energy =   -92.7236053797 (+65.635 kcal/mol)
C       -0.0975726311   -0.6409582660    0.0000000000
N       -0.6441716258    0.4130583527    0.0000000000
H        0.7417442569    0.2278999133    0.0000000000
3    
Image 5/11, Energy =   -92.7493240788 (+49.496 kcal/mol)
C       -0.0413012080   -0.4838781534   -0.0000000000
N       -0.8292012123    0.3730137689   -0.0000000000
H        0.8705024203    0.1108643876   -0.0000000000
3    
Image 6/11, Energy =   -92.7960397447 (+20.182 kcal/mol)
C       -0.0046073106   -0.3046405304   -0.0000000000
N       -0.9823880739    0.2918621614   -0.0000000000
H        0.9869953845    0.0127783732    0.0000000000
3    
Image 7/11, Energy =   -92.8247387366 (+2.173 kcal/mol)
C        0.0296050734   -0.1017640257    0.0000000000
N       -1.0955870238    0.0834121675    0.0000000000
H        1.0659819504    0.0183518619   -0.0000000000
3    
Image 8/11, Energy =   -92.8281174086 (+0.053 kcal/mol)
C        0.0339768420   -0.0060209340   -0.0000000000
N       -1.0747418921   -0.2794231181   -0.0000000000
H        1.0407650493    0.2854440565   -0.0000000000
3    
Image 9/11, Energy =   -92.8282014356 (+0.000 kcal/mol)
C        0.0275721323    0.0148287354   -0.0000000000
N       -0.9423060023   -0.5899255110   -0.0000000000
H        0.9147338655    0.5750967764    0.0000000000
3    
Image 10/11, Energy =   -92.8275480250 (+0.410 kcal/mol)
C        0.0194260531    0.0213642916    0.0000000000
N       -0.7589320385   -0.8347584655    0.0000000000
H        0.7395059801    0.8133941739    0.0000000000
