3    
Image 0/11, Energy =   -92.8141878331 (+8.744 kcal/mol)
C       -0.7519862172   -0.8272338407    0.0000000000
N        0.0394753340    0.0434721354    0.0000000000
H        0.7125108832    0.7837617053    0.0000000000
3    
Image 1/11, Energy =   -92.8029849958 (+15.774 kcal/mol)
C       -0.6085505978   -0.8536339235   -0.0000000000
N       -0.1378053814    0.2186476980    0.0000000000
H        0.7463559793    0.6349862259    0.0000000000
3    
Image 2/11, Energy =   -92.7757730589 (+32.850 kcal/mol)
C       -0.4301559479   -0.8396327995    0.0000000000
N       -0.2872009390    0.3398546434    0.0000000000
H        0.7173568870    0.4997781584    0.0000000000
3    
Image 3/11, Energy =   -92.7431996474 (+53.290 kcal/mol)
C       -0.2298234381   -0.7714717918   -0.0000000000
N       -0.4561916717    0.3997661963    0.0000000000
H        0.6860151105    0.3717055999    0.0000000000
3    
Image 4/11, Energy =   -92.7236566238 (+65.553 kcal/mol)
C       -0.1047758681   -0.6563474805    0.0000000000
N       -0.6346217997    0.4035049772    0.0000000000
H        0.7393976691    0.2528425070   -0.0000000000
3    
Image 5/11, Energy =   -92.7477025573 (+50.464 kcal/mol)
C       -0.0343480272   -0.4925546751    0.0000000000
N       -0.8343923336    0.3505403506    0.0000000000
H        0.8687403609    0.1420143283   -0.0000000000
3    
Image 6/11, Energy =   -92.7981608462 (+18.801 kcal/mol)
C        0.0398931300   -0.2953029066   -0.0000000000
N       -1.0242637343    0.1384177018    0.0000000000
H        0.9843706082    0.1568852104   -0.0000000000
3    
Image 7/11, Energy =   -92.8236419270 (+2.811 kcal/mol)
C        0.0569988446   -0.1041960181    0.0000000000
N       -1.0720726645   -0.2332059779    0.0000000000
H        1.0150738231    0.3374019983   -0.0000000000
3    
Image 8/11, Energy =   -92.8269568211 (+0.731 kcal/mol)
C        0.0459814415   -0.0347884721    0.0000000000
N       -0.9883706345   -0.4988901542   -0.0000000000
H        0.9423891959    0.5336786287   -0.0000000000
3    
Image 9/11, Energy =   -92.8281221327 (+0.000 kcal/mol)
C        0.0298422495    0.0080556277   -0.0000000000
N       -0.8603016767   -0.7056859839    0.0000000000
H        0.8304594269    0.6976303568    0.0000000000
3    
Image 10/11, Energy =   -92.8275480250 (+0.360 kcal/mol)
C        0.0194260531    0.0213642916    0.0000000000
N       -0.7589320385   -0.8347584655    0.0000000000
H        0.7395059801    0.8133941739    0.0000000000
