3    
Climbing Image - Chain 35 Image 4 Energy   -92.7236060391 (+65.591 kcal/mol) RMSGrad 0.016 eV/Ang
C       -0.0832461893   -0.6435057438   -0.0000000000
N       -0.6537088492    0.3976754055   -0.0000000000
H        0.7369550385    0.2458303420   -0.0000000000
