3    
Image 0/11, Energy =   -92.8148741520 (+8.372 kcal/mol)
C       -0.7423976108   -0.8166733316   -0.0000000000
N        0.0415634250    0.0457411997    0.0000000000
H        0.7008341858    0.7709321319    0.0000000000
3    
Image 1/11, Energy =   -92.8041012365 (+15.132 kcal/mol)
C       -0.6124460805   -0.8583936003    0.0000000000
N       -0.1323107628    0.2108672919    0.0000000000
H        0.7447568443    0.6475263099    0.0000000000
3    
Image 2/11, Energy =   -92.7735080110 (+34.330 kcal/mol)
C       -0.4181901266   -0.8359219822    0.0000000000
N       -0.2945990432    0.3488653284    0.0000000000
H        0.7127891708    0.4870566545    0.0000000000
3    
Image 3/11, Energy =   -92.7452946466 (+52.034 kcal/mol)
C       -0.2577197122   -0.7688234060    0.0000000000
N       -0.4281586197    0.4132781108    0.0000000000
H        0.6858783319    0.3555452927    0.0000000000
3    
Image 4/11, Energy =   -92.7236064005 (+65.643 kcal/mol)
C       -0.1114711160   -0.6377029794    0.0000000000
N       -0.6373134680    0.4265426664   -0.0000000000
H        0.7487845839    0.2111603077    0.0000000000
3    
Image 5/11, Energy =   -92.7451697712 (+52.112 kcal/mol)
C       -0.0461983561   -0.5002458111    0.0000000000
N       -0.8132170167    0.3793232836   -0.0000000000
H        0.8594153729    0.1209225230    0.0000000000
3    
Image 6/11, Energy =   -92.7903368643 (+23.769 kcal/mol)
C        0.0053586792   -0.3308957156   -0.0000000000
N       -0.9776767212    0.2612174248   -0.0000000000
H        0.9723180420    0.0696782878    0.0000000000
3    
Image 7/11, Energy =   -92.8252335954 (+1.871 kcal/mol)
C        0.0536651335   -0.0846450360   -0.0000000000
N       -1.0811255441   -0.2166357064    0.0000000000
H        1.0274604106    0.3012807421   -0.0000000000
3    
Image 8/11, Energy =   -92.8279026195 (+0.197 kcal/mol)
C        0.0423009336   -0.0113248200    0.0000000000
N       -0.9667649493   -0.5504714310    0.0000000000
H        0.9244640158    0.5617962510   -0.0000000000
3    
Image 9/11, Energy =   -92.8282133643 (+0.002 kcal/mol)
C        0.0226502297    0.0205525709   -0.0000000000
N       -0.7546795668   -0.8188468760    0.0000000000
H        0.7320293372    0.7982942998    0.0000000000
3    
Image 10/11, Energy =   -92.8282158336 (+0.000 kcal/mol)
C        0.0205086862    0.0225589462    0.0000000000
N       -0.7491295810   -0.8240317894   -0.0000000000
H        0.7286208949    0.8014728432    0.0000000000
