3    
Image 0/11, Energy =   -92.8148741520 (+8.372 kcal/mol)
C       -0.7423976108   -0.8166733316   -0.0000000000
N        0.0415634250    0.0457411997    0.0000000000
H        0.7008341858    0.7709321319    0.0000000000
3    
Image 1/11, Energy =   -92.8039552306 (+15.224 kcal/mol)
C       -0.6226626723   -0.8502412174    0.0000000000
N       -0.1304161506    0.2137373981    0.0000000000
H        0.7530788234    0.6365038200    0.0000000000
3    
Image 2/11, Energy =   -92.7726286227 (+34.882 kcal/mol)
C       -0.4432431162   -0.8188849008    0.0000000000
N       -0.2854245486    0.3621292871    0.0000000000
H        0.7286676677    0.4567556179    0.0000000000
3    
Image 3/11, Energy =   -92.7446286030 (+52.452 kcal/mol)
C       -0.2789663258   -0.7576465967   -0.0000000000
N       -0.4178671955    0.4281237850    0.0000000000
H        0.6968335213    0.3295228131    0.0000000000
3    
Image 4/11, Energy =   -92.7236064005 (+65.643 kcal/mol)
C       -0.1114711160   -0.6377029794    0.0000000000
N       -0.6373134680    0.4265426664   -0.0000000000
H        0.7487845839    0.2111603077    0.0000000000
3    
Image 5/11, Energy =   -92.7422275879 (+53.958 kcal/mol)
C       -0.0189953272   -0.5140387924    0.0000000000
N       -0.8227410172    0.3339228686   -0.0000000000
H        0.8417363444    0.1801159215    0.0000000000
3    
Image 6/11, Energy =   -92.7794100636 (+30.626 kcal/mol)
C        0.0407826879   -0.3731107787    0.0000000000
N       -0.9698939888    0.1779712538   -0.0000000000
H        0.9291113009    0.1951395242    0.0000000000
3    
Image 7/11, Energy =   -92.8142784138 (+8.746 kcal/mol)
C        0.0935882562   -0.1825426607   -0.0000000000
N       -1.0484693392   -0.2219851274    0.0000000000
H        0.9548810830    0.4045277880   -0.0000000000
3    
Image 8/11, Energy =   -92.8255935136 (+1.646 kcal/mol)
C        0.0737423801   -0.0598369242    0.0000000000
N       -0.9657204926   -0.5359755173   -0.0000000000
H        0.8919781126    0.5958124415    0.0000000000
3    
Image 9/11, Energy =   -92.8282133643 (+0.002 kcal/mol)
C        0.0226502297    0.0205525709   -0.0000000000
N       -0.7546795668   -0.8188468760    0.0000000000
H        0.7320293372    0.7982942998    0.0000000000
3    
Image 10/11, Energy =   -92.8282158336 (+0.000 kcal/mol)
C        0.0205086862    0.0225589462    0.0000000000
N       -0.7491295810   -0.8240317894   -0.0000000000
H        0.7286208949    0.8014728432    0.0000000000
