3    
Image 0/11, Energy =   -92.8148741520 (+8.372 kcal/mol)
C       -0.7423976108   -0.8166733316   -0.0000000000
N        0.0415634250    0.0457411997    0.0000000000
H        0.7008341858    0.7709321319    0.0000000000
3    
Image 1/11, Energy =   -92.8039492118 (+15.228 kcal/mol)
C       -0.6238052777   -0.8493094312    0.0000000000
N       -0.1300962382    0.2139471296   -0.0000000000
H        0.7539015159    0.6353623016    0.0000000000
3    
Image 2/11, Energy =   -92.7723166552 (+35.077 kcal/mol)
C       -0.4534961420   -0.8115874293    0.0000000000
N       -0.2812786307    0.3671108271   -0.0000000000
H        0.7347747776    0.4444766075    0.0000000000
3    
Image 3/11, Energy =   -92.7436274653 (+53.080 kcal/mol)
C       -0.2941761552   -0.7463288195   -0.0000000000
N       -0.4108235306    0.4417991135   -0.0000000000
H        0.7049996858    0.3045297107    0.0000000000
3    
Image 4/11, Energy =   -92.7236064005 (+65.643 kcal/mol)
C       -0.1114711160   -0.6377029794    0.0000000000
N       -0.6373134680    0.4265426664   -0.0000000000
H        0.7487845839    0.2111603077    0.0000000000
3    
Image 5/11, Energy =   -92.7353177916 (+58.294 kcal/mol)
C        0.0112576034   -0.5499832675    0.0000000000
N       -0.8243387404    0.3099760519   -0.0000000000
H        0.8130811370    0.2400072153    0.0000000000
3    
Image 6/11, Energy =   -92.7679914403 (+37.791 kcal/mol)
C        0.0711587847   -0.4128838111   -0.0000000000
N       -0.9507100033    0.1329891518   -0.0000000000
H        0.8795512186    0.2798946593    0.0000000000
3    
Image 7/11, Energy =   -92.7758552166 (+32.857 kcal/mol)
C        0.1850804921   -0.2509650153   -0.0000000000
N       -1.0594064609   -0.2055283294    0.0000000000
H        0.8743259688    0.4564933447   -0.0000000000
3    
Image 8/11, Energy =   -92.8220596436 (+3.863 kcal/mol)
C        0.1011862085   -0.0959008124    0.0000000000
N       -0.9556426061   -0.5299423707   -0.0000000000
H        0.8544563976    0.6258431831    0.0000000000
3    
Image 9/11, Energy =   -92.8282132887 (+0.002 kcal/mol)
C        0.0226598719    0.0205172043   -0.0000000000
N       -0.7546644396   -0.8188382067    0.0000000000
H        0.7320045677    0.7983209971    0.0000000000
3    
Image 10/11, Energy =   -92.8282158336 (+0.000 kcal/mol)
C        0.0205086862    0.0225589462    0.0000000000
N       -0.7491295810   -0.8240317894   -0.0000000000
H        0.7286208949    0.8014728432    0.0000000000
