3    
Image 0/11, Energy =   -92.8148741520 (+8.372 kcal/mol)
C       -0.7423976108   -0.8166733316   -0.0000000000
N        0.0415634250    0.0457411997    0.0000000000
H        0.7008341858    0.7709321319    0.0000000000
3    
Image 1/11, Energy =   -92.8039879922 (+15.203 kcal/mol)
C       -0.6194243786   -0.8527960737    0.0000000000
N       -0.1311281653    0.2129452080    0.0000000000
H        0.7505525448    0.6398508670    0.0000000000
3    
Image 2/11, Energy =   -92.7730138231 (+34.640 kcal/mol)
C       -0.4327042231   -0.8262555853    0.0000000000
N       -0.2893924001    0.3564578251    0.0000000000
H        0.7220966250    0.4697977630    0.0000000000
3    
Image 3/11, Energy =   -92.7450348068 (+52.197 kcal/mol)
C       -0.2685264463   -0.7636927357   -0.0000000000
N       -0.4229243036    0.4203845416    0.0000000000
H        0.6914507499    0.3433081935    0.0000000000
3    
Image 4/11, Energy =   -92.7236064005 (+65.643 kcal/mol)
C       -0.1114711160   -0.6377029794    0.0000000000
N       -0.6373134680    0.4265426664   -0.0000000000
H        0.7487845839    0.2111603077    0.0000000000
3    
Image 5/11, Energy =   -92.7442170758 (+52.710 kcal/mol)
C       -0.0338427062   -0.5051166223    0.0000000000
N       -0.8194172475    0.3582848553   -0.0000000000
H        0.8532599537    0.1468317635    0.0000000000
3    
Image 6/11, Energy =   -92.7856505459 (+26.710 kcal/mol)
C        0.0226351059   -0.3498469474    0.0000000000
N       -0.9772564653    0.2161364849   -0.0000000000
H        0.9546213594    0.1337104609    0.0000000000
3    
Image 7/11, Energy =   -92.8207291204 (+4.698 kcal/mol)
C        0.0722184396   -0.1348337007   -0.0000000000
N       -1.0667774422   -0.2200125219    0.0000000000
H        0.9945590026    0.3548462224   -0.0000000000
3    
Image 8/11, Energy =   -92.8270810130 (+0.712 kcal/mol)
C        0.0570569919   -0.0348692562    0.0000000000
N       -0.9677191410   -0.5427260974    0.0000000000
H        0.9106621491    0.5775953535    0.0000000000
3    
Image 9/11, Energy =   -92.8282133643 (+0.002 kcal/mol)
C        0.0226502297    0.0205525709   -0.0000000000
N       -0.7546795668   -0.8188468760    0.0000000000
H        0.7320293372    0.7982942998    0.0000000000
3    
Image 10/11, Energy =   -92.8282158336 (+0.000 kcal/mol)
C        0.0205086862    0.0225589462    0.0000000000
N       -0.7491295810   -0.8240317894   -0.0000000000
H        0.7286208949    0.8014728432    0.0000000000
