3    
Image 0/11, Energy =   -92.8148741520 (+8.372 kcal/mol)
C       -0.7423976108   -0.8166733316   -0.0000000000
N        0.0415634250    0.0457411997    0.0000000000
H        0.7008341858    0.7709321319    0.0000000000
3    
Image 1/11, Energy =   -92.8039492118 (+15.228 kcal/mol)
C       -0.6238052777   -0.8493094312    0.0000000000
N       -0.1300962382    0.2139471296   -0.0000000000
H        0.7539015159    0.6353623016    0.0000000000
3    
Image 2/11, Energy =   -92.7724078079 (+35.020 kcal/mol)
C       -0.4499772153   -0.8141956368    0.0000000000
N       -0.2827235190    0.3656483024    0.0000000000
H        0.7327007383    0.4485473394    0.0000000000
3    
Image 3/11, Energy =   -92.7441181734 (+52.772 kcal/mol)
C       -0.2878362789   -0.7514181401   -0.0000000000
N       -0.4136511828    0.4356130102    0.0000000000
H        0.7014874617    0.3158051332    0.0000000000
3    
Image 4/11, Energy =   -92.7236064005 (+65.643 kcal/mol)
C       -0.1114711160   -0.6377029794    0.0000000000
N       -0.6373134680    0.4265426664   -0.0000000000
H        0.7487845839    0.2111603077    0.0000000000
3    
Image 5/11, Energy =   -92.7394017502 (+55.732 kcal/mol)
C       -0.0056407302   -0.5265654027    0.0000000000
N       -0.8209137560    0.3124777083   -0.0000000000
H        0.8265544863    0.2140876933    0.0000000000
3    
Image 6/11, Energy =   -92.7730305967 (+34.629 kcal/mol)
C        0.0572822586   -0.3955085990   -0.0000000000
N       -0.9592889870    0.1499702514   -0.0000000000
H        0.9020067284    0.2455383475    0.0000000000
3    
Image 7/11, Energy =   -92.8069978248 (+13.315 kcal/mol)
C        0.1133124366   -0.2231358029   -0.0000000000
N       -1.0286236647   -0.2222698550    0.0000000000
H        0.9153112282    0.4454056579   -0.0000000000
3    
Image 8/11, Energy =   -92.8237281433 (+2.816 kcal/mol)
C        0.0893289238   -0.0813620347    0.0000000000
N       -0.9610654343   -0.5317867678   -0.0000000000
H        0.8717365105    0.6131488025    0.0000000000
3    
Image 9/11, Energy =   -92.8282133643 (+0.002 kcal/mol)
C        0.0226502297    0.0205525709   -0.0000000000
N       -0.7546795668   -0.8188468760    0.0000000000
H        0.7320293372    0.7982942998    0.0000000000
3    
Image 10/11, Energy =   -92.8282158336 (+0.000 kcal/mol)
C        0.0205086862    0.0225589462    0.0000000000
N       -0.7491295810   -0.8240317894   -0.0000000000
H        0.7286208949    0.8014728432    0.0000000000
