3    
Image 0/11, Energy =   -92.8148741520 (+8.372 kcal/mol)
C       -0.7423976108   -0.8166733316   -0.0000000000
N        0.0415634250    0.0457411997    0.0000000000
H        0.7008341858    0.7709321319    0.0000000000
3    
Image 1/11, Energy =   -92.8039492118 (+15.228 kcal/mol)
C       -0.6238052777   -0.8493094312    0.0000000000
N       -0.1300962382    0.2139471296   -0.0000000000
H        0.7539015159    0.6353623016    0.0000000000
3    
Image 2/11, Energy =   -92.7723892532 (+35.032 kcal/mol)
C       -0.4506381167   -0.8137396267    0.0000000000
N       -0.2824489487    0.3659721809    0.0000000000
H        0.7330870695    0.4477674509    0.0000000000
3    
Image 3/11, Energy =   -92.7440426568 (+52.819 kcal/mol)
C       -0.2889048084   -0.7505846512   -0.0000000000
N       -0.4131591393    0.4365951799   -0.0000000000
H        0.7020639477    0.3139894748    0.0000000000
3    
Image 4/11, Energy =   -92.7236064005 (+65.643 kcal/mol)
C       -0.1114711160   -0.6377029794    0.0000000000
N       -0.6373134680    0.4265426664   -0.0000000000
H        0.7487845839    0.2111603077    0.0000000000
3    
Image 5/11, Energy =   -92.7389823692 (+55.995 kcal/mol)
C       -0.0039004301   -0.5288234911    0.0000000000
N       -0.8205405900    0.3103531144   -0.0000000000
H        0.8244410202    0.2184703758    0.0000000000
3    
Image 6/11, Energy =   -92.7722056135 (+35.147 kcal/mol)
C        0.0593940007   -0.3983453637   -0.0000000000
N       -0.9578125995    0.1469103279   -0.0000000000
H        0.8984185988    0.2514350357    0.0000000000
3    
Image 7/11, Energy =   -92.8060028653 (+13.939 kcal/mol)
C        0.1170026567   -0.2280285987   -0.0000000000
N       -1.0269196720   -0.2218002607    0.0000000000
H        0.9099170153    0.4498288594   -0.0000000000
3    
Image 8/11, Energy =   -92.8234664447 (+2.980 kcal/mol)
C        0.0912968670   -0.0838753845    0.0000000000
N       -0.9602754345   -0.5314286568   -0.0000000000
H        0.8689785676    0.6153040413    0.0000000000
3    
Image 9/11, Energy =   -92.8282133643 (+0.002 kcal/mol)
C        0.0226502297    0.0205525709   -0.0000000000
N       -0.7546795668   -0.8188468760    0.0000000000
H        0.7320293372    0.7982942998    0.0000000000
3    
Image 10/11, Energy =   -92.8282158336 (+0.000 kcal/mol)
C        0.0205086862    0.0225589462    0.0000000000
N       -0.7491295810   -0.8240317894   -0.0000000000
H        0.7286208949    0.8014728432    0.0000000000
