3    
Image 0/11, Energy =   -92.8148741520 (+8.372 kcal/mol)
C       -0.7423976108   -0.8166733316   -0.0000000000
N        0.0415634250    0.0457411997    0.0000000000
H        0.7008341858    0.7709321319    0.0000000000
3    
Image 1/11, Energy =   -92.8039502088 (+15.227 kcal/mol)
C       -0.6235417184   -0.8495565872    0.0000000000
N       -0.1301740728    0.2139243403   -0.0000000000
H        0.7537157914    0.6356322472    0.0000000000
3    
Image 2/11, Energy =   -92.7724751665 (+34.978 kcal/mol)
C       -0.4477553609   -0.8157260955    0.0000000000
N       -0.2836354913    0.3645133745    0.0000000000
H        0.7313908557    0.4512127257    0.0000000000
3    
Image 3/11, Energy =   -92.7443305329 (+52.639 kcal/mol)
C       -0.2845620150   -0.7538662896   -0.0000000000
N       -0.4151846828    0.4327178264    0.0000000000
H        0.6997466978    0.3211484657    0.0000000000
3    
Image 4/11, Energy =   -92.7236064005 (+65.643 kcal/mol)
C       -0.1114711160   -0.6377029794    0.0000000000
N       -0.6373134680    0.4265426664   -0.0000000000
H        0.7487845839    0.2111603077    0.0000000000
3    
Image 5/11, Energy =   -92.7405894894 (+54.986 kcal/mol)
C       -0.0104893130   -0.5211188318    0.0000000000
N       -0.8222187456    0.3201385821   -0.0000000000
H        0.8327080585    0.2009802481    0.0000000000
3    
Image 6/11, Energy =   -92.7754899232 (+33.086 kcal/mol)
C        0.0510682066   -0.3869973240    0.0000000000
N       -0.9636230823    0.1597809966   -0.0000000000
H        0.9125548757    0.2272163271    0.0000000000
3    
Image 7/11, Energy =   -92.8099077599 (+11.488 kcal/mol)
C        0.1057712576   -0.2080485610   -0.0000000000
N       -1.0364022923   -0.2225340022    0.0000000000
H        0.9306310346    0.4305825632   -0.0000000000
3    
Image 8/11, Energy =   -92.8244812479 (+2.343 kcal/mol)
C        0.0834310965   -0.0735080967    0.0000000000
N       -0.9631829878   -0.5330806835   -0.0000000000
H        0.8797518913    0.6065887802    0.0000000000
3    
Image 9/11, Energy =   -92.8282133643 (+0.002 kcal/mol)
C        0.0226502297    0.0205525709   -0.0000000000
N       -0.7546795668   -0.8188468760    0.0000000000
H        0.7320293372    0.7982942998    0.0000000000
3    
Image 10/11, Energy =   -92.8282158336 (+0.000 kcal/mol)
C        0.0205086862    0.0225589462    0.0000000000
N       -0.7491295810   -0.8240317894   -0.0000000000
H        0.7286208949    0.8014728432    0.0000000000
