3    
Image 0/11, Energy =   -92.8148741520 (+8.372 kcal/mol)
C       -0.7423976108   -0.8166733316   -0.0000000000
N        0.0415634250    0.0457411997    0.0000000000
H        0.7008341858    0.7709321319    0.0000000000
3    
Image 1/11, Energy =   -92.8041234929 (+15.118 kcal/mol)
C       -0.6113114515   -0.8593805568    0.0000000000
N       -0.1324368826    0.2105600351    0.0000000000
H        0.7437483351    0.6488205230    0.0000000000
3    
Image 2/11, Energy =   -92.7735665255 (+34.293 kcal/mol)
C       -0.4162558195   -0.8371501819    0.0000000000
N       -0.2952820328    0.3478927839    0.0000000000
H        0.7115378532    0.4892573983    0.0000000000
3    
Image 3/11, Energy =   -92.7453156341 (+52.021 kcal/mol)
C       -0.2565020850   -0.7693412485    0.0000000000
N       -0.4287471293    0.4125235407    0.0000000000
H        0.6852492143    0.3568177051    0.0000000000
3    
Image 4/11, Energy =   -92.7236064005 (+65.643 kcal/mol)
C       -0.1114711160   -0.6377029794    0.0000000000
N       -0.6373134680    0.4265426664   -0.0000000000
H        0.7487845839    0.2111603077    0.0000000000
3    
Image 5/11, Energy =   -92.7452306310 (+52.074 kcal/mol)
C       -0.0473678942   -0.4998822072    0.0000000000
N       -0.8124875688    0.3813340097   -0.0000000000
H        0.8598554630    0.1185481930    0.0000000000
3    
Image 6/11, Energy =   -92.7907429897 (+23.515 kcal/mol)
C        0.0034877026   -0.3291601062    0.0000000000
N       -0.9772176112    0.2665948468   -0.0000000000
H        0.9737299086    0.0625652562    0.0000000000
3    
Image 7/11, Energy =   -92.8256093182 (+1.636 kcal/mol)
C        0.0517976358   -0.0789314052   -0.0000000000
N       -1.0824404592   -0.2161753333    0.0000000000
H        1.0306428234    0.2951067382   -0.0000000000
3    
Image 8/11, Energy =   -92.8279572894 (+0.162 kcal/mol)
C        0.0407086989   -0.0089671103    0.0000000000
N       -0.9664122629   -0.5512929643    0.0000000000
H        0.9257035641    0.5602600746   -0.0000000000
3    
Image 9/11, Energy =   -92.8282133643 (+0.002 kcal/mol)
C        0.0226502297    0.0205525709   -0.0000000000
N       -0.7546795668   -0.8188468760    0.0000000000
H        0.7320293372    0.7982942998    0.0000000000
3    
Image 10/11, Energy =   -92.8282158336 (+0.000 kcal/mol)
C        0.0205086862    0.0225589462    0.0000000000
N       -0.7491295810   -0.8240317894   -0.0000000000
H        0.7286208949    0.8014728432    0.0000000000
