3    
Image 0/11, Energy =   -92.8148741520 (+8.372 kcal/mol)
C       -0.7423976108   -0.8166733316   -0.0000000000
N        0.0415634250    0.0457411997    0.0000000000
H        0.7008341858    0.7709321319    0.0000000000
3    
Image 1/11, Energy =   -92.8039494153 (+15.227 kcal/mol)
C       -0.6237493833   -0.8493805942   -0.0000000000
N       -0.1301085180    0.2139566819    0.0000000000
H        0.7538579013    0.6354239124    0.0000000000
3    
Image 2/11, Energy =   -92.7724281439 (+35.007 kcal/mol)
C       -0.4492782277   -0.8146763502    0.0000000000
N       -0.2830126521    0.3652978590    0.0000000000
H        0.7322908835    0.4493784961    0.0000000000
3    
Image 3/11, Energy =   -92.7441919980 (+52.726 kcal/mol)
C       -0.2867521288   -0.7522489198   -0.0000000000
N       -0.4141545269    0.4346339926    0.0000000000
H        0.7009066557    0.3176149303    0.0000000000
3    
Image 4/11, Energy =   -92.7236064005 (+65.643 kcal/mol)
C       -0.1114711160   -0.6377029794    0.0000000000
N       -0.6373134680    0.4265426664   -0.0000000000
H        0.7487845839    0.2111603077    0.0000000000
3    
Image 5/11, Energy =   -92.7398133837 (+55.473 kcal/mol)
C       -0.0072960681   -0.5245401191    0.0000000000
N       -0.8213563333    0.3148570084   -0.0000000000
H        0.8286524014    0.2096831095    0.0000000000
3    
Image 6/11, Energy =   -92.7738576698 (+34.110 kcal/mol)
C        0.0551855599   -0.3926588170   -0.0000000000
N       -0.9607644219    0.1531408177   -0.0000000000
H        0.9055788620    0.2395179991    0.0000000000
3    
Image 7/11, Energy =   -92.8079847253 (+12.695 kcal/mol)
C        0.1103772604   -0.2181425327   -0.0000000000
N       -1.0309387963   -0.2225207047    0.0000000000
H        0.9205615358    0.4406632374   -0.0000000000
3    
Image 8/11, Energy =   -92.8239857416 (+2.654 kcal/mol)
C        0.0873522434   -0.0787877107    0.0000000000
N       -0.9618230378   -0.5321785154   -0.0000000000
H        0.8744707943    0.6109662260    0.0000000000
3    
Image 9/11, Energy =   -92.8282133643 (+0.002 kcal/mol)
C        0.0226502297    0.0205525709   -0.0000000000
N       -0.7546795668   -0.8188468760    0.0000000000
H        0.7320293372    0.7982942998    0.0000000000
3    
Image 10/11, Energy =   -92.8282158336 (+0.000 kcal/mol)
C        0.0205086862    0.0225589462    0.0000000000
N       -0.7491295810   -0.8240317894   -0.0000000000
H        0.7286208949    0.8014728432    0.0000000000
