3    
Image 0/11, Energy =   -92.8148741520 (+8.372 kcal/mol)
C       -0.7423976108   -0.8166733316   -0.0000000000
N        0.0415634250    0.0457411997    0.0000000000
H        0.7008341858    0.7709321319    0.0000000000
3    
Image 1/11, Energy =   -92.8040230668 (+15.181 kcal/mol)
C       -0.6169504975   -0.8547786654    0.0000000000
N       -0.1315846425    0.2122596640    0.0000000000
H        0.7485351410    0.6425190027    0.0000000000
3    
Image 2/11, Energy =   -92.7732240434 (+34.508 kcal/mol)
C       -0.4268238392   -0.8302609105    0.0000000000
N       -0.2915250262    0.3533271581    0.0000000000
H        0.7183488668    0.4769337544    0.0000000000
3    
Image 3/11, Energy =   -92.7451669944 (+52.114 kcal/mol)
C       -0.2637532789   -0.7660843015   -0.0000000000
N       -0.4252384449    0.4171482301    0.0000000000
H        0.6889917239    0.3489360700    0.0000000000
3    
Image 4/11, Energy =   -92.7236064005 (+65.643 kcal/mol)
C       -0.1114711160   -0.6377029794    0.0000000000
N       -0.6373134680    0.4265426664   -0.0000000000
H        0.7487845839    0.2111603077    0.0000000000
3    
Image 5/11, Energy =   -92.7447448017 (+52.379 kcal/mol)
C       -0.0397238569   -0.5025468254    0.0000000000
N       -0.8168264508    0.3682405276   -0.0000000000
H        0.8565503076    0.1343062938    0.0000000000
3    
Image 6/11, Energy =   -92.7879570538 (+25.263 kcal/mol)
C        0.0148345311   -0.3407277346    0.0000000000
N       -0.9784146983    0.2354030439   -0.0000000000
H        0.9635801673    0.1053246885    0.0000000000
3    
Image 7/11, Energy =   -92.8229819533 (+3.284 kcal/mol)
C        0.0635868792   -0.1127790410   -0.0000000000
N       -1.0737068517   -0.2186784116    0.0000000000
H        1.0101199726    0.3314574523   -0.0000000000
3    
Image 8/11, Energy =   -92.8275242826 (+0.434 kcal/mol)
C        0.0501715135   -0.0240766438    0.0000000000
N       -0.9676016426   -0.5461266100    0.0000000000
H        0.9174301291    0.5702032538   -0.0000000000
3    
Image 9/11, Energy =   -92.8282133643 (+0.002 kcal/mol)
C        0.0226502297    0.0205525709   -0.0000000000
N       -0.7546795668   -0.8188468760    0.0000000000
H        0.7320293372    0.7982942998    0.0000000000
3    
Image 10/11, Energy =   -92.8282158336 (+0.000 kcal/mol)
C        0.0205086862    0.0225589462    0.0000000000
N       -0.7491295810   -0.8240317894   -0.0000000000
H        0.7286208949    0.8014728432    0.0000000000
