3    
Image 0/11, Energy =   -92.8148741520 (+8.372 kcal/mol)
C       -0.7423976108   -0.8166733316   -0.0000000000
N        0.0415634250    0.0457411997    0.0000000000
H        0.7008341858    0.7709321319    0.0000000000
3    
Image 1/11, Energy =   -92.8039492118 (+15.228 kcal/mol)
C       -0.6238052777   -0.8493094312    0.0000000000
N       -0.1300962382    0.2139471296   -0.0000000000
H        0.7539015159    0.6353623016    0.0000000000
3    
Image 2/11, Energy =   -92.7723614896 (+35.049 kcal/mol)
C       -0.4557999166   -0.8098371135    0.0000000000
N       -0.2802932886    0.3668994417   -0.0000000000
H        0.7360932105    0.4429376718    0.0000000000
3    
Image 3/11, Energy =   -92.7429055322 (+53.533 kcal/mol)
C       -0.2999264034   -0.7406841562    0.0000000000
N       -0.4089817990    0.4493210624   -0.0000000000
H        0.7089082024    0.2913630990    0.0000000000
3    
Image 4/11, Energy =   -92.7236064005 (+65.643 kcal/mol)
C       -0.1114711160   -0.6377029794    0.0000000000
N       -0.6373134680    0.4265426664   -0.0000000000
H        0.7487845839    0.2111603077    0.0000000000
3    
Image 5/11, Energy =   -92.7618714439 (+41.632 kcal/mol)
C        0.0840393208   -0.4314953894    0.0000000000
N       -0.9356189963    0.1178070447   -0.0000000000
H        0.8515796755    0.3136883447    0.0000000000
3    
Image 6/11, Energy =   -92.8200279341 (+5.138 kcal/mol)
C        0.1136821083   -0.1100172069    0.0000000000
N       -0.9482182665   -0.5284272345   -0.0000000000
H        0.8345361581    0.6384444414    0.0000000000
3    
Image 7/11, Energy =   -92.8282118896 (+0.002 kcal/mol)
C        0.0232094955    0.0201304356    0.0000000000
N       -0.7548663277   -0.8185219434   -0.0000000000
H        0.7316568322    0.7983915025    0.0000000000
3    
Image 8/11, Energy =   -92.8282152908 (+0.000 kcal/mol)
C        0.0213654399    0.0218705872    0.0000000000
N       -0.7507408674   -0.8222341056   -0.0000000000
H        0.7293754275    0.8003635184    0.0000000000
3    
Image 9/11, Energy =   -92.8282158187 (+0.000 kcal/mol)
C        0.0205271280    0.0224979797    0.0000000000
N       -0.7492597057   -0.8239970595   -0.0000000000
H        0.7287325777    0.8014990745    0.0000000000
3    
Image 10/11, Energy =   -92.8282158336 (+0.000 kcal/mol)
C        0.0205086862    0.0225589462    0.0000000000
N       -0.7491295810   -0.8240317894   -0.0000000000
H        0.7286208949    0.8014728432    0.0000000000
