3    
Image 0/11, Energy =   -92.8148741520 (+8.372 kcal/mol)
C       -0.7423976108   -0.8166733316   -0.0000000000
N        0.0415634250    0.0457411997    0.0000000000
H        0.7008341858    0.7709321319    0.0000000000
3    
Image 1/11, Energy =   -92.8039492118 (+15.228 kcal/mol)
C       -0.6238052777   -0.8493094312    0.0000000000
N       -0.1300962382    0.2139471296   -0.0000000000
H        0.7539015159    0.6353623016    0.0000000000
3    
Image 2/11, Energy =   -92.7723725556 (+35.042 kcal/mol)
C       -0.4512543000   -0.8133115413    0.0000000000
N       -0.2821922848    0.3662657312    0.0000000000
H        0.7334465891    0.4470458153    0.0000000000
3    
Image 3/11, Energy =   -92.7439668675 (+52.867 kcal/mol)
C       -0.2899414966   -0.7497634308   -0.0000000000
N       -0.4126859309    0.4375647346    0.0000000000
H        0.7026274275    0.3121987000    0.0000000000
3    
Image 4/11, Energy =   -92.7236064005 (+65.643 kcal/mol)
C       -0.1114711160   -0.6377029794    0.0000000000
N       -0.6373134680    0.4265426664   -0.0000000000
H        0.7487845839    0.2111603077    0.0000000000
3    
Image 5/11, Energy =   -92.7385593162 (+56.260 kcal/mol)
C       -0.0020624240   -0.5313132143    0.0000000000
N       -0.8202888295    0.3085590482   -0.0000000000
H        0.8223512535    0.2227541653    0.0000000000
3    
Image 6/11, Energy =   -92.7713964985 (+35.655 kcal/mol)
C        0.0614927221   -0.4011251984   -0.0000000000
N       -0.9563670701    0.1440029149   -0.0000000000
H        0.8948743480    0.2571222834    0.0000000000
3    
Image 7/11, Energy =   -92.8049665089 (+14.589 kcal/mol)
C        0.1216527723   -0.2327294404   -0.0000000000
N       -1.0260896349   -0.2211058318    0.0000000000
H        0.9044368626    0.4538352722   -0.0000000000
3    
Image 8/11, Energy =   -92.8232052022 (+3.144 kcal/mol)
C        0.0932253231   -0.0862897279    0.0000000000
N       -0.9594713677   -0.5311067603   -0.0000000000
H        0.8662460446    0.6173964882    0.0000000000
3    
Image 9/11, Energy =   -92.8282133643 (+0.002 kcal/mol)
C        0.0226502297    0.0205525709   -0.0000000000
N       -0.7546795668   -0.8188468760    0.0000000000
H        0.7320293372    0.7982942998    0.0000000000
3    
Image 10/11, Energy =   -92.8282158336 (+0.000 kcal/mol)
C        0.0205086862    0.0225589462    0.0000000000
N       -0.7491295810   -0.8240317894   -0.0000000000
H        0.7286208949    0.8014728432    0.0000000000
