3    
Image 0/11, Energy =   -92.8148741520 (+8.372 kcal/mol)
C       -0.7423976108   -0.8166733316   -0.0000000000
N        0.0415634250    0.0457411997    0.0000000000
H        0.7008341858    0.7709321319    0.0000000000
3    
Image 1/11, Energy =   -92.8039492118 (+15.228 kcal/mol)
C       -0.6238052777   -0.8493094312    0.0000000000
N       -0.1300962382    0.2139471296   -0.0000000000
H        0.7539015159    0.6353623016    0.0000000000
3    
Image 2/11, Energy =   -92.7723105848 (+35.081 kcal/mol)
C       -0.4537437884   -0.8113251008    0.0000000000
N       -0.2811892933    0.3671240475   -0.0000000000
H        0.7349330867    0.4442010586    0.0000000000
3    
Image 3/11, Energy =   -92.7435792772 (+53.110 kcal/mol)
C       -0.2947173843   -0.7458962693   -0.0000000000
N       -0.4106012825    0.4424071871   -0.0000000000
H        0.7053186668    0.3034890871    0.0000000000
3    
Image 4/11, Energy =   -92.7236064005 (+65.643 kcal/mol)
C       -0.1114711160   -0.6377029794    0.0000000000
N       -0.6373134680    0.4265426664   -0.0000000000
H        0.7487845839    0.2111603077    0.0000000000
3    
Image 5/11, Energy =   -92.7339138450 (+59.175 kcal/mol)
C        0.0147654835   -0.5550416855    0.0000000000
N       -0.8263870855    0.3130867997   -0.0000000000
H        0.8116216019    0.2419548855    0.0000000000
3    
Image 6/11, Energy =   -92.7675083487 (+38.095 kcal/mol)
C        0.0726667307   -0.4145386949   -0.0000000000
N       -0.9499901096    0.1317496818   -0.0000000000
H        0.8773233789    0.2827890131    0.0000000000
3    
Image 7/11, Energy =   -92.7567064648 (+44.873 kcal/mol)
C        0.2060130374   -0.2526263055   -0.0000000000
N       -1.0732886930   -0.1975030403    0.0000000000
H        0.8672756556    0.4501293458   -0.0000000000
3    
Image 8/11, Energy =   -92.8218988177 (+3.964 kcal/mol)
C        0.1020320165   -0.0972096320    0.0000000000
N       -0.9549169250   -0.5296921868   -0.0000000000
H        0.8528849085    0.6269018188    0.0000000000
3    
Image 9/11, Energy =   -92.8282131745 (+0.002 kcal/mol)
C        0.0226679995    0.0204695818   -0.0000000000
N       -0.7546414306   -0.8188258762    0.0000000000
H        0.7319734310    0.7983562891    0.0000000000
3    
Image 10/11, Energy =   -92.8282158336 (+0.000 kcal/mol)
C        0.0205086862    0.0225589462    0.0000000000
N       -0.7491295810   -0.8240317894   -0.0000000000
H        0.7286208949    0.8014728432    0.0000000000
