3    
Image 0/11, Energy =   -92.8148741520 (+8.372 kcal/mol)
C       -0.7423976108   -0.8166733316   -0.0000000000
N        0.0415634250    0.0457411997    0.0000000000
H        0.7008341858    0.7709321319    0.0000000000
3    
Image 1/11, Energy =   -92.8039492118 (+15.228 kcal/mol)
C       -0.6238052777   -0.8493094312    0.0000000000
N       -0.1300962382    0.2139471296   -0.0000000000
H        0.7539015159    0.6353623016    0.0000000000
3    
Image 2/11, Energy =   -92.7723217062 (+35.074 kcal/mol)
C       -0.4532850222   -0.8117860931    0.0000000000
N       -0.2813589865    0.3670727040   -0.0000000000
H        0.7346440136    0.4447133944    0.0000000000
3    
Image 3/11, Energy =   -92.7436658466 (+53.056 kcal/mol)
C       -0.2937326729   -0.7466870690   -0.0000000000
N       -0.4110097495    0.4413187860   -0.0000000000
H        0.7047424224    0.3053682876    0.0000000000
3    
Image 4/11, Energy =   -92.7236064005 (+65.643 kcal/mol)
C       -0.1114711160   -0.6377029794    0.0000000000
N       -0.6373134680    0.4265426664   -0.0000000000
H        0.7487845839    0.2111603077    0.0000000000
3    
Image 5/11, Energy =   -92.7360853084 (+57.813 kcal/mol)
C        0.0088432142   -0.5465955841    0.0000000000
N       -0.8230273307    0.3082816453   -0.0000000000
H        0.8141841166    0.2383139385    0.0000000000
3    
Image 6/11, Energy =   -92.7683592490 (+37.561 kcal/mol)
C        0.0699972584   -0.4116106679   -0.0000000000
N       -0.9512498935    0.1340542150   -0.0000000000
H        0.8812526351    0.2775564529    0.0000000000
3    
Image 7/11, Energy =   -92.7863089903 (+26.297 kcal/mol)
C        0.1707941497   -0.2492256007   -0.0000000000
N       -1.0498266009   -0.2102165629    0.0000000000
H        0.8790324512    0.4594421636   -0.0000000000
3    
Image 8/11, Energy =   -92.8221870555 (+3.783 kcal/mol)
C        0.1004045981   -0.0948812937    0.0000000000
N       -0.9561441924   -0.5300938030   -0.0000000000
H        0.8557395944    0.6249750967    0.0000000000
3    
Image 9/11, Energy =   -92.8282132887 (+0.002 kcal/mol)
C        0.0226598719    0.0205172043   -0.0000000000
N       -0.7546644396   -0.8188382067    0.0000000000
H        0.7320045677    0.7983209971    0.0000000000
3    
Image 10/11, Energy =   -92.8282158336 (+0.000 kcal/mol)
C        0.0205086862    0.0225589462    0.0000000000
N       -0.7491295810   -0.8240317894   -0.0000000000
H        0.7286208949    0.8014728432    0.0000000000
