3    
Image 0/11, Energy =   -92.8148741520 (+8.372 kcal/mol)
C       -0.7423976108   -0.8166733316   -0.0000000000
N        0.0415634250    0.0457411997    0.0000000000
H        0.7008341858    0.7709321319    0.0000000000
3    
Image 1/11, Energy =   -92.8039569763 (+15.223 kcal/mol)
C       -0.6224226731   -0.8504311512    0.0000000000
N       -0.1304745846    0.2136862026   -0.0000000000
H        0.7528972583    0.6367449493    0.0000000000
3    
Image 2/11, Energy =   -92.7726646032 (+34.859 kcal/mol)
C       -0.4422339500   -0.8195951833    0.0000000000
N       -0.2858156867    0.3615896433    0.0000000000
H        0.7280496394    0.4580055442    0.0000000000
3    
Image 3/11, Energy =   -92.7446816756 (+52.418 kcal/mol)
C       -0.2778299669   -0.7583649122   -0.0000000000
N       -0.4184158193    0.4272315247    0.0000000000
H        0.6962457861    0.3311333886    0.0000000000
3    
Image 4/11, Energy =   -92.7236064005 (+65.643 kcal/mol)
C       -0.1114711160   -0.6377029794    0.0000000000
N       -0.6373134680    0.4265426664   -0.0000000000
H        0.7487845839    0.2111603077    0.0000000000
3    
Image 5/11, Energy =   -92.7425090071 (+53.782 kcal/mol)
C       -0.0207183062   -0.5127991410    0.0000000000
N       -0.8226031547    0.3366803044   -0.0000000000
H        0.8433214609    0.1761188341    0.0000000000
3    
Image 6/11, Energy =   -92.7801617589 (+30.154 kcal/mol)
C        0.0387329317   -0.3703952007    0.0000000000
N       -0.9709854252    0.1818551564   -0.0000000000
H        0.9322524935    0.1885400436    0.0000000000
3    
Image 7/11, Energy =   -92.8150855598 (+8.239 kcal/mol)
C        0.0910844696   -0.1773754763   -0.0000000000
N       -1.0506594667   -0.2218403368    0.0000000000
H        0.9595749971    0.3992158131   -0.0000000000
3    
Image 8/11, Energy =   -92.8257921577 (+1.521 kcal/mol)
C        0.0718306072   -0.0570668931    0.0000000000
N       -0.9661048813   -0.5366380561   -0.0000000000
H        0.8942742741    0.5937049492    0.0000000000
3    
Image 9/11, Energy =   -92.8282133643 (+0.002 kcal/mol)
C        0.0226502297    0.0205525709   -0.0000000000
N       -0.7546795668   -0.8188468760    0.0000000000
H        0.7320293372    0.7982942998    0.0000000000
3    
Image 10/11, Energy =   -92.8282158336 (+0.000 kcal/mol)
C        0.0205086862    0.0225589462    0.0000000000
N       -0.7491295810   -0.8240317894   -0.0000000000
H        0.7286208949    0.8014728432    0.0000000000
