3    
Image 0/11, Energy =   -92.8148741520 (+8.372 kcal/mol)
C       -0.7423976108   -0.8166733316   -0.0000000000
N        0.0415634250    0.0457411997    0.0000000000
H        0.7008341858    0.7709321319    0.0000000000
3    
Image 1/11, Energy =   -92.8039492118 (+15.228 kcal/mol)
C       -0.6238052777   -0.8493094312    0.0000000000
N       -0.1300962382    0.2139471296   -0.0000000000
H        0.7539015159    0.6353623016    0.0000000000
3    
Image 2/11, Energy =   -92.7723388788 (+35.063 kcal/mol)
C       -0.4525717651   -0.8123658251    0.0000000000
N       -0.2816452978    0.3668428201   -0.0000000000
H        0.7342170675    0.4455230101    0.0000000000
3    
Image 3/11, Energy =   -92.7437831565 (+52.982 kcal/mol)
C       -0.2923182350   -0.7478414308   -0.0000000000
N       -0.4116214317    0.4398642157   -0.0000000000
H        0.7039396667    0.3079772193    0.0000000000
3    
Image 4/11, Energy =   -92.7236064005 (+65.643 kcal/mol)
C       -0.1114711160   -0.6377029794    0.0000000000
N       -0.6373134680    0.4265426664   -0.0000000000
H        0.7487845839    0.2111603077    0.0000000000
3    
Image 5/11, Energy =   -92.7374073970 (+56.983 kcal/mol)
C        0.0033849566   -0.5389531953    0.0000000000
N       -0.8207777508    0.3063374285   -0.0000000000
H        0.8173927943    0.2326157663    0.0000000000
3    
Image 6/11, Energy =   -92.7695105896 (+36.838 kcal/mol)
C        0.0665930474   -0.4076205891   -0.0000000000
N       -0.9530849070    0.1376072095   -0.0000000000
H        0.8864918595    0.2700133796    0.0000000000
3    
Image 7/11, Energy =   -92.8003567384 (+17.482 kcal/mol)
C        0.1414303647   -0.2432613838   -0.0000000000
N       -1.0318060139   -0.2176572728    0.0000000000
H        0.8903756492    0.4609186566   -0.0000000000
3    
Image 8/11, Energy =   -92.8225791890 (+3.537 kcal/mol)
C        0.0977323040   -0.0917106317    0.0000000000
N       -0.9574932822   -0.5304641578   -0.0000000000
H        0.8597609781    0.6221747895    0.0000000000
3    
Image 9/11, Energy =   -92.8282133643 (+0.002 kcal/mol)
C        0.0226502297    0.0205525709   -0.0000000000
N       -0.7546795668   -0.8188468760    0.0000000000
H        0.7320293372    0.7982942998    0.0000000000
3    
Image 10/11, Energy =   -92.8282158336 (+0.000 kcal/mol)
C        0.0205086862    0.0225589462    0.0000000000
N       -0.7491295810   -0.8240317894   -0.0000000000
H        0.7286208949    0.8014728432    0.0000000000
