3    
Image 0/11, Energy =   -92.8148741520 (+8.372 kcal/mol)
C       -0.7423976108   -0.8166733316   -0.0000000000
N        0.0415634250    0.0457411997    0.0000000000
H        0.7008341858    0.7709321319    0.0000000000
3    
Image 1/11, Energy =   -92.8040486772 (+15.165 kcal/mol)
C       -0.6153747932   -0.8560524337    0.0000000000
N       -0.1318472448    0.2117983245    0.0000000000
H        0.7472220390    0.6442541107    0.0000000000
3    
Image 2/11, Energy =   -92.7733354291 (+34.438 kcal/mol)
C       -0.4235606730   -0.8324337521    0.0000000000
N       -0.2926929809    0.3516190563    0.0000000000
H        0.7162536551    0.4808146972    0.0000000000
3    
Image 3/11, Energy =   -92.7452227872 (+52.079 kcal/mol)
C       -0.2613496092   -0.7672114455    0.0000000000
N       -0.4264025697    0.4155789856    0.0000000000
H        0.6877521790    0.3516324580    0.0000000000
3    
Image 4/11, Energy =   -92.7236064005 (+65.643 kcal/mol)
C       -0.1114711160   -0.6377029794    0.0000000000
N       -0.6373134680    0.4265426664   -0.0000000000
H        0.7487845839    0.2111603077    0.0000000000
3    
Image 5/11, Energy =   -92.7449418277 (+52.255 kcal/mol)
C       -0.0424359626   -0.5015200042    0.0000000000
N       -0.8154066859    0.3728709742   -0.0000000000
H        0.8578426485    0.1286490258    0.0000000000
3    
Image 6/11, Energy =   -92.7889780653 (+24.622 kcal/mol)
C        0.0110115716   -0.3365701608    0.0000000000
N       -0.9784218031    0.2455049813   -0.0000000000
H        0.9674102314    0.0910651769    0.0000000000
3    
Image 7/11, Energy =   -92.8239575149 (+2.672 kcal/mol)
C        0.0595025379   -0.1016059591   -0.0000000000
N       -1.0768432836   -0.2179119412    0.0000000000
H        1.0173407457    0.3195179000   -0.0000000000
3    
Image 8/11, Energy =   -92.8276976508 (+0.325 kcal/mol)
C        0.0469049033   -0.0188682226    0.0000000000
N       -0.9673376784   -0.5478583616    0.0000000000
H        0.9204327751    0.5667265842   -0.0000000000
3    
Image 9/11, Energy =   -92.8282133643 (+0.002 kcal/mol)
C        0.0226502297    0.0205525709   -0.0000000000
N       -0.7546795668   -0.8188468760    0.0000000000
H        0.7320293372    0.7982942998    0.0000000000
3    
Image 10/11, Energy =   -92.8282158336 (+0.000 kcal/mol)
C        0.0205086862    0.0225589462    0.0000000000
N       -0.7491295810   -0.8240317894   -0.0000000000
H        0.7286208949    0.8014728432    0.0000000000
