3    
Image 0/11, Energy =   -92.8148741520 (+8.372 kcal/mol)
C       -0.7423976108   -0.8166733316   -0.0000000000
N        0.0415634250    0.0457411997    0.0000000000
H        0.7008341858    0.7709321319    0.0000000000
3    
Image 1/11, Energy =   -92.8041486005 (+15.102 kcal/mol)
C       -0.6100171685   -0.8603223128    0.0000000000
N       -0.1326695195    0.2100474250    0.0000000000
H        0.7426866890    0.6502748891    0.0000000000
3    
Image 2/11, Energy =   -92.7736253201 (+34.256 kcal/mol)
C       -0.4142402682   -0.8384136220    0.0000000000
N       -0.2959922930    0.3468907295    0.0000000000
H        0.7102325620    0.4915228925    0.0000000000
3    
Image 3/11, Energy =   -92.7453352281 (+52.008 kcal/mol)
C       -0.2552797858   -0.7698500542    0.0000000000
N       -0.4293375644    0.4117740735    0.0000000000
H        0.6846173502    0.3580759779    0.0000000000
3    
Image 4/11, Energy =   -92.7236064005 (+65.643 kcal/mol)
C       -0.1114711160   -0.6377029794    0.0000000000
N       -0.6373134680    0.4265426664   -0.0000000000
H        0.7487845839    0.2111603077    0.0000000000
3    
Image 5/11, Energy =   -92.7452851433 (+52.040 kcal/mol)
C       -0.0484937982   -0.4995446720    0.0000000000
N       -0.8117647343    0.3832712812   -0.0000000000
H        0.8602585325    0.1162733861    0.0000000000
3    
Image 6/11, Energy =   -92.7911254855 (+23.275 kcal/mol)
C        0.0016341093   -0.3275120437    0.0000000000
N       -0.9766605054    0.2720467863   -0.0000000000
H        0.9750263962    0.0554652540    0.0000000000
3    
Image 7/11, Energy =   -92.8259604308 (+1.415 kcal/mol)
C        0.0499638134   -0.0731817279   -0.0000000000
N       -1.0836940824   -0.2156978682    0.0000000000
H        1.0337302690    0.2888795957   -0.0000000000
3    
Image 8/11, Energy =   -92.8280054648 (+0.132 kcal/mol)
C        0.0395045445   -0.0064715458    0.0000000000
N       -0.9663416630   -0.5522247765    0.0000000000
H        0.9268371185    0.5586963224   -0.0000000000
3    
Image 9/11, Energy =   -92.8282133643 (+0.002 kcal/mol)
C        0.0226502297    0.0205525709   -0.0000000000
N       -0.7546795668   -0.8188468760    0.0000000000
H        0.7320293372    0.7982942998    0.0000000000
3    
Image 10/11, Energy =   -92.8282158336 (+0.000 kcal/mol)
C        0.0205086862    0.0225589462    0.0000000000
N       -0.7491295810   -0.8240317894   -0.0000000000
H        0.7286208949    0.8014728432    0.0000000000
