3    
Image 0/11, Energy =   -92.8148741520 (+8.372 kcal/mol)
C       -0.7423976108   -0.8166733316   -0.0000000000
N        0.0415634250    0.0457411997    0.0000000000
H        0.7008341858    0.7709321319    0.0000000000
3    
Image 1/11, Energy =   -92.8039764630 (+15.210 kcal/mol)
C       -0.6203833741   -0.8520344071    0.0000000000
N       -0.1309336938    0.2131948094    0.0000000000
H        0.7513170688    0.6388395989    0.0000000000
3    
Image 2/11, Energy =   -92.7729167750 (+34.701 kcal/mol)
C       -0.4353478930   -0.8244234537    0.0000000000
N       -0.2884180366    0.3578803075    0.0000000000
H        0.7237659316    0.4665431493    0.0000000000
3    
Image 3/11, Energy =   -92.7449579876 (+52.245 kcal/mol)
C       -0.2708864612   -0.7624292711   -0.0000000000
N       -0.4217794694    0.4220493571    0.0000000000
H        0.6926659305    0.3403799138    0.0000000000
3    
Image 4/11, Energy =   -92.7236064005 (+65.643 kcal/mol)
C       -0.1114711160   -0.6377029794    0.0000000000
N       -0.6373134680    0.4265426664   -0.0000000000
H        0.7487845839    0.2111603077    0.0000000000
3    
Image 5/11, Energy =   -92.7438770747 (+52.923 kcal/mol)
C       -0.0307054966   -0.5066933802    0.0000000000
N       -0.8205135235    0.3530340704   -0.0000000000
H        0.8512190200    0.1536593065    0.0000000000
3    
Image 6/11, Energy =   -92.7843777265 (+27.509 kcal/mol)
C        0.0266033335   -0.3547415370    0.0000000000
N       -0.9761458794    0.2070226184   -0.0000000000
H        0.9495425459    0.1477189172    0.0000000000
3    
Image 7/11, Energy =   -92.8194569242 (+5.496 kcal/mol)
C        0.0767430250   -0.1456759425   -0.0000000000
N       -1.0630099071   -0.2205775965    0.0000000000
H        0.9862668821    0.3662535389   -0.0000000000
3    
Image 8/11, Energy =   -92.8268093773 (+0.883 kcal/mol)
C        0.0606450673   -0.0403846948    0.0000000000
N       -0.9675551848   -0.5410930504    0.0000000000
H        0.9069101175    0.5814777452    0.0000000000
3    
Image 9/11, Energy =   -92.8282133643 (+0.002 kcal/mol)
C        0.0226502297    0.0205525709   -0.0000000000
N       -0.7546795668   -0.8188468760    0.0000000000
H        0.7320293372    0.7982942998    0.0000000000
3    
Image 10/11, Energy =   -92.8282158336 (+0.000 kcal/mol)
C        0.0205086862    0.0225589462    0.0000000000
N       -0.7491295810   -0.8240317894   -0.0000000000
H        0.7286208949    0.8014728432    0.0000000000
