3    
Image 0/11, Energy =   -92.8148741520 (+8.372 kcal/mol)
C       -0.7423976108   -0.8166733316   -0.0000000000
N        0.0415634250    0.0457411997    0.0000000000
H        0.7008341858    0.7709321319    0.0000000000
3    
Image 1/11, Energy =   -92.8039492118 (+15.228 kcal/mol)
C       -0.6238052777   -0.8493094312    0.0000000000
N       -0.1300962382    0.2139471296   -0.0000000000
H        0.7539015159    0.6353623016    0.0000000000
3    
Image 2/11, Energy =   -92.7723190368 (+35.076 kcal/mol)
C       -0.4533968991   -0.8116831548    0.0000000000
N       -0.2813160179    0.3670954311   -0.0000000000
H        0.7347129219    0.4445877290    0.0000000000
3    
Image 3/11, Energy =   -92.7436457545 (+53.069 kcal/mol)
C       -0.2939660546   -0.7464980935   -0.0000000000
N       -0.4109113457    0.4415697010   -0.0000000000
H        0.7048774003    0.3049283971    0.0000000000
3    
Image 4/11, Energy =   -92.7236064005 (+65.643 kcal/mol)
C       -0.1114711160   -0.6377029794    0.0000000000
N       -0.6373134680    0.4265426664   -0.0000000000
H        0.7487845839    0.2111603077    0.0000000000
3    
Image 5/11, Energy =   -92.7357154779 (+58.045 kcal/mol)
C        0.0100614586   -0.5483023131    0.0000000000
N       -0.8236732516    0.3090890453   -0.0000000000
H        0.8136117930    0.2392132675    0.0000000000
3    
Image 6/11, Energy =   -92.7681656091 (+37.682 kcal/mol)
C        0.0706033708   -0.4122818691   -0.0000000000
N       -0.9509627669    0.1334919540   -0.0000000000
H        0.8803593961    0.2787899150    0.0000000000
3    
Image 7/11, Energy =   -92.7813361533 (+29.417 kcal/mol)
C        0.1779749044   -0.2501529472   -0.0000000000
N       -1.0546264884   -0.2079555827    0.0000000000
H        0.8766515840    0.4581085300   -0.0000000000
3    
Image 8/11, Energy =   -92.8221203832 (+3.825 kcal/mol)
C        0.1008222246   -0.0954140940    0.0000000000
N       -0.9558875212   -0.5300184948   -0.0000000000
H        0.8550652965    0.6254325887    0.0000000000
3    
Image 9/11, Energy =   -92.8282132887 (+0.002 kcal/mol)
C        0.0226598719    0.0205172043   -0.0000000000
N       -0.7546644396   -0.8188382067    0.0000000000
H        0.7320045677    0.7983209971    0.0000000000
3    
Image 10/11, Energy =   -92.8282158336 (+0.000 kcal/mol)
C        0.0205086862    0.0225589462    0.0000000000
N       -0.7491295810   -0.8240317894   -0.0000000000
H        0.7286208949    0.8014728432    0.0000000000
