3    
Image 0/11, Energy =   -92.8148741520 (+8.372 kcal/mol)
C       -0.7423976108   -0.8166733316   -0.0000000000
N        0.0415634250    0.0457411997    0.0000000000
H        0.7008341858    0.7709321319    0.0000000000
3    
Image 1/11, Energy =   -92.8039492118 (+15.228 kcal/mol)
C       -0.6238052777   -0.8493094312    0.0000000000
N       -0.1300962382    0.2139471296   -0.0000000000
H        0.7539015159    0.6353623016    0.0000000000
3    
Image 2/11, Energy =   -92.7723579628 (+35.051 kcal/mol)
C       -0.4518120067   -0.8129190794    0.0000000000
N       -0.2819599214    0.3665214576    0.0000000000
H        0.7337719324    0.4463976270    0.0000000000
3    
Image 3/11, Energy =   -92.7438931397 (+52.913 kcal/mol)
C       -0.2909179418   -0.7489795435   -0.0000000000
N       -0.4122446439    0.4384946905    0.0000000000
H        0.7031625857    0.3104848569    0.0000000000
3    
Image 4/11, Energy =   -92.7236064005 (+65.643 kcal/mol)
C       -0.1114711160   -0.6377029794    0.0000000000
N       -0.6373134680    0.4265426664   -0.0000000000
H        0.7487845839    0.2111603077    0.0000000000
3    
Image 5/11, Energy =   -92.7381352014 (+56.526 kcal/mol)
C       -0.0001152972   -0.5340245114    0.0000000000
N       -0.8202322070    0.3072156337   -0.0000000000
H        0.8203475042    0.2268088770    0.0000000000
3    
Image 6/11, Energy =   -92.7706269004 (+36.138 kcal/mol)
C        0.0635274114   -0.4037706384   -0.0000000000
N       -0.9550043364    0.1413245291   -0.0000000000
H        0.8914769250    0.2624461093    0.0000000000
3    
Image 7/11, Energy =   -92.8037700701 (+15.340 kcal/mol)
C        0.1275483194   -0.2371020762   -0.0000000000
N       -1.0265447363   -0.2201673505    0.0000000000
H        0.8989964169    0.4572694267   -0.0000000000
3    
Image 8/11, Energy =   -92.8229525804 (+3.303 kcal/mol)
C        0.0950604704   -0.0885388264    0.0000000000
N       -0.9586809374   -0.5308269393   -0.0000000000
H        0.8636204670    0.6193657656    0.0000000000
3    
Image 9/11, Energy =   -92.8282133643 (+0.002 kcal/mol)
C        0.0226502297    0.0205525709   -0.0000000000
N       -0.7546795668   -0.8188468760    0.0000000000
H        0.7320293372    0.7982942998    0.0000000000
3    
Image 10/11, Energy =   -92.8282158336 (+0.000 kcal/mol)
C        0.0205086862    0.0225589462    0.0000000000
N       -0.7491295810   -0.8240317894   -0.0000000000
H        0.7286208949    0.8014728432    0.0000000000
