3    
Image 0/11, Energy =   -92.8148741520 (+8.372 kcal/mol)
C       -0.7423976108   -0.8166733316   -0.0000000000
N        0.0415634250    0.0457411997    0.0000000000
H        0.7008341858    0.7709321319    0.0000000000
3    
Image 1/11, Energy =   -92.8039590591 (+15.221 kcal/mol)
C       -0.6221560002   -0.8506373380    0.0000000000
N       -0.1305402750    0.2136237451   -0.0000000000
H        0.7526962759    0.6370135937    0.0000000000
3    
Image 2/11, Energy =   -92.7727023414 (+34.835 kcal/mol)
C       -0.4411872246   -0.8203319147    0.0000000000
N       -0.2862184263    0.3610281001   -0.0000000000
H        0.7274056536    0.4593038186    0.0000000000
3    
Image 3/11, Energy =   -92.7447327040 (+52.386 kcal/mol)
C       -0.2766874999   -0.7590714872   -0.0000000000
N       -0.4189681466    0.4263475257    0.0000000000
H        0.6956556465    0.3327239624    0.0000000000
3    
Image 4/11, Energy =   -92.7236064005 (+65.643 kcal/mol)
C       -0.1114711160   -0.6377029794    0.0000000000
N       -0.6373134680    0.4265426664   -0.0000000000
H        0.7487845839    0.2111603077    0.0000000000
3    
Image 5/11, Energy =   -92.7427750523 (+53.615 kcal/mol)
C       -0.0224294884   -0.5116250641    0.0000000000
N       -0.8224001005    0.3394371454   -0.0000000000
H        0.8448295888    0.1721879161    0.0000000000
3    
Image 6/11, Energy =   -92.7809009682 (+29.691 kcal/mol)
C        0.0366900436   -0.3677047898    0.0000000000
N       -0.9720166455    0.1858259943   -0.0000000000
H        0.9353266020    0.1818787947    0.0000000000
3    
Image 7/11, Energy =   -92.8158706529 (+7.747 kcal/mol)
C        0.0886114312   -0.1721764112   -0.0000000000
N       -1.0528142652   -0.2216770248    0.0000000000
H        0.9642028341    0.3938534360   -0.0000000000
3    
Image 8/11, Energy =   -92.8259826177 (+1.401 kcal/mol)
C        0.0699303530   -0.0542893726    0.0000000000
N       -0.9664487570   -0.5373255767    0.0000000000
H        0.8965184041    0.5916149494    0.0000000000
3    
Image 9/11, Energy =   -92.8282133643 (+0.002 kcal/mol)
C        0.0226502297    0.0205525709   -0.0000000000
N       -0.7546795668   -0.8188468760    0.0000000000
H        0.7320293372    0.7982942998    0.0000000000
3    
Image 10/11, Energy =   -92.8282158336 (+0.000 kcal/mol)
C        0.0205086862    0.0225589462    0.0000000000
N       -0.7491295810   -0.8240317894   -0.0000000000
H        0.7286208949    0.8014728432    0.0000000000
