6    
Climbing Image - Chain 52 Image 8 Energy  -168.9962095799 (+35.307 kcal/mol) RMSGrad 0.024 eV/Ang
C       -0.2521019788   -1.1071225882   -1.0124977123
C       -0.6147169085    0.0007661855   -0.5348184061
H       -1.3285273871    0.7771610506   -0.5801572646
H        0.5733091582   -1.7452323251   -0.7799517282
C        0.4535628949    0.9029219771    1.0129924518
N        1.1684741816    1.1715058664    1.8944325132
