3    
Climbing Image - Chain 43 Image 7 Energy   -93.3428705015 (+50.023 kcal/mol) RMSGrad 0.012 eV/Ang
C       -0.0215391312   -0.6480013232   -0.0000000000
N       -0.6798147909    0.3451953346    0.0000000000
H        0.7013158474    0.3028752024   -0.0000000000
