3    
Climbing Image - Chain 35 Image 7 Energy   -93.3552129888 (+47.296 kcal/mol) RMSGrad 0.019 eV/Ang
C       -0.0252881397   -0.6422516464   -0.0000000000
N       -0.6857178388    0.3490383094   -0.0000000000
H        0.7109784267    0.2932775301    0.0000000000
