3    
Climbing Image - Chain 30 Image 4 Energy   -92.7236064005 (+65.643 kcal/mol) RMSGrad 0.025 eV/Ang
C       -0.1092497147   -0.6380872944    0.0000000000
N       -0.6387949895    0.4243207148    0.0000000000
H        0.7480447042    0.2137665849    0.0000000000
