6    
Image 0/11, Energy =  -169.0522692293 (+0.220 kcal/mol)
C       -0.3689809232   -1.4576547332   -1.3858823910
C       -0.1536196575   -0.5941379364   -0.5627748996
H        0.0498937432    0.2058682499    0.1931202386
H       -0.5557149982   -2.2230003307   -2.1042277546
C        0.4068909404    1.6172446315    1.5286738868
N        0.6215308952    2.4516801189    2.3310909145
6    
Image 1/11, Energy =  -169.0526202890 (+0.000 kcal/mol)
C       -0.3420215820   -1.4522966480   -1.3542291391
C       -0.2702343666   -0.5174073010   -0.6072831130
H       -0.1494459134    0.3042570838    0.0939475106
H       -0.3873067831   -2.2784309279   -1.9993315883
C        0.3601617492    1.6464900752    1.4988516091
N        0.7888468865    2.2973876781    2.3680447078
6    
Image 2/11, Energy =  -169.0503241975 (+1.441 kcal/mol)
C       -0.3120307934   -1.4344353876   -1.3132574860
C       -0.3863186527   -0.4404333071   -0.6496732742
H       -0.3476354747    0.4173022643    0.0049064797
H       -0.2144714844   -2.3130794780   -1.8737203297
C        0.3273396173    1.6606351254    1.4703320390
N        0.9331168359    2.1100107756    2.3614125509
6    
Image 3/11, Energy =  -169.0468170706 (+3.642 kcal/mol)
C       -0.2783073501   -1.3991310849   -1.2570116126
C       -0.4976789559   -0.3680896845   -0.6906673980
H       -0.5487135474    0.5225146892   -0.0936330244
H       -0.0412676240   -2.3079306705   -1.7182950775
C        0.3172044099    1.6481533073    1.4419852539
N        1.0487631027    1.9044834007    2.3176219438
6    
Image 4/11, Energy =  -169.0421195226 (+6.589 kcal/mol)
C       -0.2434332109   -1.3467037637   -1.1868003647
C       -0.5995551921   -0.3013569584   -0.7287181868
H       -0.7517566734    0.6135555280   -0.2032994131
H        0.1270584674   -2.2600741526   -1.5373360707
C        0.3310969905    1.5942425618    1.4072955642
N        1.1365896456    1.7003367360    2.2488585010
6    
Image 5/11, Energy =  -169.0361819175 (+10.315 kcal/mol)
C       -0.2123262438   -1.2788277852   -1.1086112847
C       -0.6838911321   -0.2393845720   -0.7565265764
H       -0.9498896839    0.6870086962   -0.3199536431
H        0.2834098262   -2.1705539144   -1.3379958166
C        0.3624551252    1.4886124940    1.3530638589
N        1.2002421698    1.5131450793    2.1700234697
6    
Image 6/11, Energy =  -169.0278099726 (+15.569 kcal/mol)
C       -0.1956567550   -1.2025325008   -1.0382657364
C       -0.7336400334   -0.1747401361   -0.7556841085
H       -1.1300288045    0.7427653541   -0.4349804475
H        0.4195031227   -2.0426231008   -1.1258923052
C        0.4024788508    1.3256354664    1.2673695338
N        1.2373436347    1.3514949033    2.0874530457
6    
Image 7/11, Energy =  -169.0120238284 (+25.475 kcal/mol)
C       -0.2107237551   -1.1415534460   -1.0053973167
C       -0.7115810660   -0.0956759310   -0.6837808117
H       -1.2643602533    0.7741283917   -0.5267006379
H        0.5192881743   -1.8884700725   -0.9277727466
C        0.4394610926    1.1138577390    1.1454199444
N        1.2279158064    1.2377132693    1.9982314938
6    
Image 8/11, Energy =  -168.9962095846 (+35.398 kcal/mol)
C       -0.2521018949   -1.1071225914   -1.0124981785
C       -0.6147168895    0.0007658408   -0.5348183670
H       -1.3285271524    0.7771608146   -0.5801567446
H        0.5733087499   -1.7452329057   -0.7799527776
C        0.4535631422    0.9029205674    1.0129934483
N        1.1684740150    1.1715082933    1.8944325850
6    
Image 9/11, Energy =  -169.0185481864 (+21.381 kcal/mol)
C       -0.2719625516   -1.0757314587   -1.0098528780
C       -0.5069210254    0.0856166830   -0.3812102048
H       -1.3135117481    0.7752545292   -0.5708749214
H        0.5941009964   -1.6771003016   -0.7120056808
C        0.4053047108    0.7756581993    0.8955912835
N        1.0929895856    1.1163023882    1.7783524219
6    
Image 10/11, Energy =  -169.0437609545 (+5.559 kcal/mol)
C       -0.2721093513   -1.0384613434   -0.9953339881
C       -0.4664498990    0.1336943575   -0.3047184047
H       -1.3026915424    0.8069996864   -0.5503883163
H        0.6404231461   -1.5232274468   -0.5526624607
C        0.3524169885    0.6272448767    0.7650856657
N        1.0484106581    0.9937498643    1.6380174988
