6    
Image 0/11, Energy =  -169.0522692293 (+0.000 kcal/mol)
C       -0.3689809232   -1.4576547332   -1.3858823910
C       -0.1536196575   -0.5941379364   -0.5627748996
H        0.0498937432    0.2058682499    0.1931202386
H       -0.5557149982   -2.2230003307   -2.1042277546
C        0.4068909404    1.6172446315    1.5286738868
N        0.6215308952    2.4516801189    2.3310909145
6    
Image 1/11, Energy =  -169.0519517628 (+0.199 kcal/mol)
C       -0.3623197322   -1.4491628562   -1.3519404599
C       -0.2692148267   -0.5219149442   -0.6060486348
H       -0.1256012864    0.2745562042    0.1074858628
H       -0.3986971112   -2.2503326667   -2.0207459156
C        0.4439763605    1.5622384747    1.5395783548
N        0.7118566228    2.3846157915    2.3316708073
6    
Image 2/11, Energy =  -169.0487500063 (+2.208 kcal/mol)
C       -0.3398608479   -1.4350455461   -1.3288272760
C       -0.3883388197   -0.4623440639   -0.6376679338
H       -0.3085203440    0.3594378541    0.0443268336
H       -0.2472455937   -2.2732244550   -1.9383554883
C        0.4869209041    1.4938301883    1.5443053967
N        0.7970447185    2.3173460273    2.3162184768
6    
Image 3/11, Energy =  -169.0442660217 (+5.022 kcal/mol)
C       -0.3021030559   -1.4009526755   -1.2923193882
C       -0.4943177760   -0.4086630159   -0.6581753129
H       -0.5227377723    0.4547016272   -0.0337154896
H       -0.0878378609   -2.2761384264   -1.8189910706
C        0.5141467338    1.4338324124    1.5005127470
N        0.8928497364    2.1972200650    2.3026885028
6    
Image 4/11, Energy =  -169.0394335366 (+8.055 kcal/mol)
C       -0.2592408085   -1.3585808001   -1.2247469847
C       -0.5797189640   -0.3390328867   -0.6927374715
H       -0.7368749596    0.5489599026   -0.1450409009
H        0.0689070312   -2.2495195026   -1.6474641100
C        0.5012269761    1.4056581507    1.4137885524
N        1.0057007367    1.9925151363    2.2962009060
6    
Image 5/11, Energy =  -169.0333922856 (+11.845 kcal/mol)
C       -0.2244773216   -1.2950139440   -1.1367063669
C       -0.6472407022   -0.2715674439   -0.7145809996
H       -0.9521053126    0.6270567648   -0.2834360014
H        0.2266468133   -2.1746139186   -1.4406974679
C        0.4901155411    1.3768390836    1.3227804030
N        1.1070609787    1.7372994331    2.2526404219
6    
Image 6/11, Energy =  -169.0262227521 (+16.344 kcal/mol)
C       -0.1974853753   -1.2272585247   -1.0494402024
C       -0.6982853433   -0.2057600952   -0.7015158018
H       -1.1215991648    0.6826646463   -0.4050063564
H        0.3626515306   -2.0631008813   -1.2395748667
C        0.4896484669    1.3245327467    1.2260546026
N        1.1650698861    1.4889221003    2.1694826164
6    
Image 7/11, Energy =  -169.0143618733 (+23.787 kcal/mol)
C       -0.1923126381   -1.1629901464   -0.9599980846
C       -0.7064718341   -0.1195027202   -0.6543778624
H       -1.2376609928    0.7363876280   -0.5040002913
H        0.4824117652   -1.9234442876   -1.0330152597
C        0.4783960619    1.2299264534    1.1048889939
N        1.1756376262    1.2396230703    2.0465024915
6    
Image 8/11, Energy =  -168.9953429897 (+35.722 kcal/mol)
C       -0.2247492495   -1.1074121788   -0.9236196797
C       -0.6357331418   -0.0106712659   -0.5365490135
H       -1.2995884703    0.7762634094   -0.5798004582
H        0.5696736426   -1.7730353805   -0.8326663646
C        0.4458823478    1.0540695426    0.9696373669
N        1.1445148705    1.0607858765    1.9029981412
6    
Image 9/11, Energy =  -169.0212962592 (+19.436 kcal/mol)
C       -0.2699655277   -1.0693027035   -0.9496599541
C       -0.4966356811    0.1107987255   -0.3570654957
H       -1.3070177810    0.7759493143   -0.5865595556
H        0.6061740103   -1.6772349787   -0.7205313908
C        0.3922350886    0.8259844088    0.8432013220
N        1.0752098973    1.0338052488    1.7706150577
6    
Image 10/11, Energy =  -169.0437609545 (+5.339 kcal/mol)
C       -0.2721093513   -1.0384613434   -0.9953339881
C       -0.4664498990    0.1336943575   -0.3047184047
H       -1.3026915424    0.8069996864   -0.5503883163
H        0.6404231461   -1.5232274468   -0.5526624607
C        0.3524169885    0.6272448767    0.7650856657
N        1.0484106581    0.9937498643    1.6380174988
