6    
Image 0/11, Energy =  -169.0522692293 (+0.375 kcal/mol)
C       -0.3689809232   -1.4576547332   -1.3858823910
C       -0.1536196575   -0.5941379364   -0.5627748996
H        0.0498937432    0.2058682499    0.1931202386
H       -0.5557149982   -2.2230003307   -2.1042277546
C        0.4068909404    1.6172446315    1.5286738868
N        0.6215308952    2.4516801189    2.3310909145
6    
Image 1/11, Energy =  -169.0528661679 (+0.000 kcal/mol)
C       -0.3434188015   -1.4587215829   -1.3583658249
C       -0.2651769357   -0.5241820277   -0.6113059372
H       -0.1467035392    0.2985430334    0.0866619085
H       -0.3947332671   -2.2838495946   -2.0054945429
C        0.3484794710    1.6665664809    1.5096973718
N        0.8015532149    2.3016436473    2.3788069731
6    
Image 2/11, Energy =  -169.0506552059 (+1.387 kcal/mol)
C       -0.3121169633   -1.4415387881   -1.3161533817
C       -0.3773092077   -0.4452221021   -0.6540066082
H       -0.3433805541    0.4170756173   -0.0045468730
H       -0.2248964682   -2.3228636167   -1.8778653160
C        0.3021962150    1.6946040826    1.4858337704
N        0.9555070043    2.0979447818    2.3667383236
6    
Image 3/11, Energy =  -169.0472472042 (+3.526 kcal/mol)
C       -0.2773108884   -1.4049629735   -1.2578894951
C       -0.4868390537   -0.3688006022   -0.6956152893
H       -0.5459426886    0.5258716834   -0.1043903653
H       -0.0507024844   -2.3192052037   -1.7183878006
C        0.2846673611    1.6933870018    1.4670549940
N        1.0761277209    1.8737099477    2.3092279495
6    
Image 4/11, Energy =  -169.0427606635 (+6.341 kcal/mol)
C       -0.2402355185   -1.3509375608   -1.1862789869
C       -0.5905484090   -0.2986492903   -0.7378112870
H       -0.7556317179    0.6197996432   -0.2215346806
H        0.1206360622   -2.2727917314   -1.5305738013
C        0.2972267444    1.6512653847    1.4471794478
N        1.1685528012    1.6513134710    2.2290194056
6    
Image 5/11, Energy =  -169.0371969329 (+9.833 kcal/mol)
C       -0.2051030484   -1.2786517297   -1.1033696367
C       -0.6832904365   -0.2341269818   -0.7740998097
H       -0.9662655178    0.6957447857   -0.3536113885
H        0.2827315264   -2.1805119739   -1.3187560579
C        0.3343199263    1.5489045079    1.4055180308
N        1.2376074851    1.4486415474    2.1443191951
6    
Image 6/11, Energy =  -169.0294311247 (+14.706 kcal/mol)
C       -0.1849598116   -1.1937752249   -1.0217877476
C       -0.7479043651   -0.1686307675   -0.7801412072
H       -1.1502424865    0.7535661453   -0.4722244763
H        0.4274613274   -2.0400787136   -1.0921512517
C        0.3828494238    1.3696616742    1.3050697892
N        1.2727960042    1.2792570151    2.0612349650
6    
Image 7/11, Energy =  -169.0136197025 (+24.628 kcal/mol)
C       -0.2009987593   -1.1299580796   -0.9883429238
C       -0.7295557296   -0.0884406502   -0.7067314585
H       -1.2791501616    0.7876750499   -0.5613563685
H        0.5274419466   -1.8766136533   -0.8874505535
C        0.4235090980    1.1262392960    1.1642459593
N        1.2587537542    1.1810981716    1.9796353959
6    
Image 8/11, Energy =  -168.9961773961 (+35.573 kcal/mol)
C       -0.2504070377   -1.1026244992   -1.0116449811
C       -0.6169746796    0.0073782755   -0.5403122512
H       -1.3248945967    0.7883305541   -0.6013568624
H        0.5686226168   -1.7399189999   -0.7533989468
C        0.4404999554    0.9005091159    1.0207432646
N        1.1831538355    1.1463256779    1.8859699178
6    
Image 9/11, Energy =  -169.0167555696 (+22.660 kcal/mol)
C       -0.2705565277   -1.0735666805   -1.0106179590
C       -0.5088427153    0.0878779469   -0.3873250850
H       -1.3085991496    0.7818402251   -0.5896811519
H        0.5834277966   -1.6879070344   -0.7048363604
C        0.4009587418    0.7806841154    0.9089286423
N        1.1036119290    1.1110715387    1.7835320450
6    
Image 10/11, Energy =  -169.0437609544 (+5.714 kcal/mol)
C       -0.2721093513   -1.0384613434   -0.9953339881
C       -0.4664498990    0.1336943575   -0.3047184047
H       -1.3026915424    0.8069996864   -0.5503883163
H        0.6404231461   -1.5232274468   -0.5526624607
C        0.3524169885    0.6272448767    0.7650856657
N        1.0484106581    0.9937498643    1.6380174988
