6    
Image 0/11, Energy =  -169.0522692293 (+0.350 kcal/mol)
C       -0.3689809232   -1.4576547332   -1.3858823910
C       -0.1536196575   -0.5941379364   -0.5627748996
H        0.0498937432    0.2058682499    0.1931202386
H       -0.5557149982   -2.2230003307   -2.1042277546
C        0.4068909404    1.6172446315    1.5286738868
N        0.6215308952    2.4516801189    2.3310909145
6    
Image 1/11, Energy =  -169.0528264307 (+0.000 kcal/mol)
C       -0.3467087918   -1.4527273853   -1.3651515859
C       -0.2757330699   -0.5277889092   -0.6045737923
H       -0.1429455357    0.2860792215    0.1028629901
H       -0.3915299413   -2.2753292123   -2.0156774183
C        0.3858741453    1.6333993664    1.5165254229
N        0.7710432153    2.3363669224    2.3660144034
6    
Image 2/11, Energy =  -169.0507508970 (+1.302 kcal/mol)
C       -0.3221864117   -1.4398238664   -1.3322839950
C       -0.3944949361   -0.4605004418   -0.6468034986
H       -0.3343351656    0.3845984575    0.0234160873
H       -0.2240145618   -2.3097249448   -1.9085279007
C        0.3706872368    1.6373329596    1.4918000306
N        0.9043438842    2.1881178449    2.3723993044
6    
Image 3/11, Energy =  -169.0474994281 (+3.343 kcal/mol)
C       -0.2943045480   -1.4128397441   -1.2821538842
C       -0.5030505930   -0.3947045351   -0.6904069400
H       -0.5260371020    0.4798458023   -0.0658556542
H       -0.0590102465   -2.3100279352   -1.7702488811
C        0.3674877196    1.6266308573    1.4582683804
N        1.0149147530    2.0110955553    2.3503969856
6    
Image 4/11, Energy =  -169.0431342225 (+6.082 kcal/mol)
C       -0.2611514148   -1.3685071764   -1.2179081399
C       -0.6010955689   -0.3321426908   -0.7255085755
H       -0.7201092837    0.5691420085   -0.1681319648
H        0.1011975018   -2.2721598417   -1.6011268233
C        0.3794268495    1.5900447721    1.4114401600
N        1.1017318647    1.8136229497    2.3012353411
6    
Image 5/11, Energy =  -169.0376013120 (+9.554 kcal/mol)
C       -0.2269503465   -1.3046731146   -1.1392782927
C       -0.6830357314   -0.2699436770   -0.7518865286
H       -0.9108169326    0.6496306270   -0.2795431326
H        0.2525395112   -2.1947942441   -1.4044750932
C        0.4028408520    1.5125598359    1.3453490655
N        1.1654225910    1.6072205530    2.2298339814
6    
Image 6/11, Energy =  -169.0296531324 (+14.541 kcal/mol)
C       -0.2035887445   -1.2247601996   -1.0561999755
C       -0.7366434180   -0.2001721559   -0.7555034053
H       -1.0973262178    0.7186356479   -0.3987317497
H        0.3958682324   -2.0698209905   -1.1805326782
C        0.4360324887    1.3700131135    1.2541559156
N        1.2056576388    1.4061045811    2.1368119008
6    
Image 7/11, Energy =  -169.0134254480 (+24.724 kcal/mol)
C       -0.2140439990   -1.1487950565   -1.0058436285
C       -0.7210524902   -0.1069147464   -0.6907527614
H       -1.2618827844    0.7654631825   -0.5164234815
H        0.5183986417   -1.8910909610   -0.9363434928
C        0.4653216696    1.1478953062    1.1278712880
N        1.2132589766    1.2334422384    2.0214920663
6    
Image 8/11, Energy =  -168.9961739740 (+35.550 kcal/mol)
C       -0.2581629187   -1.1064446610   -1.0091287368
C       -0.6121355622    0.0130144459   -0.5313566124
H       -1.3460077026    0.7703053761   -0.5918993251
H        0.5852289378   -1.7089903477   -0.7427863463
C        0.4630954475    0.9024962602    0.9868238090
N        1.1679818421    1.1296189116    1.8883471887
6    
Image 9/11, Energy =  -169.0178994296 (+21.917 kcal/mol)
C       -0.2715368869   -1.0772880246   -1.0035029280
C       -0.5171564776    0.0900800922   -0.3942759986
H       -1.3297833712    0.7721844284   -0.5838901873
H        0.6043033658   -1.6470229487   -0.6807544807
C        0.4122732236    0.7788685405    0.8843116666
N        1.1019001687    1.0831778881    1.7781119094
6    
Image 10/11, Energy =  -169.0437609545 (+5.689 kcal/mol)
C       -0.2721093513   -1.0384613434   -0.9953339881
C       -0.4664498990    0.1336943575   -0.3047184047
H       -1.3026915424    0.8069996864   -0.5503883163
H        0.6404231461   -1.5232274468   -0.5526624607
C        0.3524169885    0.6272448767    0.7650856657
N        1.0484106581    0.9937498643    1.6380174988
