6    
Image 0/11, Energy =  -169.0522692293 (+0.322 kcal/mol)
C       -0.3689809232   -1.4576547332   -1.3858823910
C       -0.1536196575   -0.5941379364   -0.5627748996
H        0.0498937432    0.2058682499    0.1931202386
H       -0.5557149982   -2.2230003307   -2.1042277546
C        0.4068909404    1.6172446315    1.5286738868
N        0.6215308952    2.4516801189    2.3310909145
6    
Image 1/11, Energy =  -169.0527822104 (+0.000 kcal/mol)
C       -0.3455920808   -1.4540878869   -1.3592821636
C       -0.2714100389   -0.5244850773   -0.6063640468
H       -0.1456620723    0.2930076083    0.0993382719
H       -0.3905281158   -2.2762280821   -2.0108006678
C        0.3738175928    1.6422290056    1.5080910836
N        0.7793747290    2.3195644421    2.3690175230
6    
Image 2/11, Energy =  -169.0507010309 (+1.306 kcal/mol)
C       -0.3186191828   -1.4403687427   -1.3241182899
C       -0.3863002894   -0.4543972607   -0.6474369759
H       -0.3388055525    0.3964821638    0.0156722115
H       -0.2233041023   -2.3115223794   -1.8976182445
C        0.3496765660    1.6546487506    1.4818304596
N        0.9173525880    2.1551574877    2.3716708184
6    
Image 3/11, Energy =  -169.0474338777 (+3.356 kcal/mol)
C       -0.2872308286   -1.4103100895   -1.2728541528
C       -0.4948629562   -0.3874999263   -0.6865571701
H       -0.5328719242    0.4953974792   -0.0761664875
H       -0.0570491455   -2.3106816830   -1.7549791369
C        0.3434144822    1.6451895941    1.4501399215
N        1.0286003730    1.9679046518    2.3404170552
6    
Image 4/11, Energy =  -169.0429908851 (+6.144 kcal/mol)
C       -0.2542034753   -1.3626280170   -1.2070157633
C       -0.5940674462   -0.3232210622   -0.7222214712
H       -0.7285352636    0.5856918516   -0.1802983585
H        0.1057511948   -2.2704738557   -1.5825684725
C        0.3564706331    1.6013495222    1.4086628282
N        1.1145843433    1.7692815140    2.2834412398
6    
Image 5/11, Energy =  -169.0371207927 (+9.828 kcal/mol)
C       -0.2234936758   -1.2960833405   -1.1287347197
C       -0.6793701321   -0.2584517105   -0.7502892472
H       -0.9269655977    0.6652455041   -0.2968066789
H        0.2640430123   -2.1861187841   -1.3795904091
C        0.3863974554    1.5081003220    1.3482349828
N        1.1793889535    1.5673079529    2.2071860794
6    
Image 6/11, Energy =  -169.0285144942 (+15.228 kcal/mol)
C       -0.2041965251   -1.2151636526   -1.0505538827
C       -0.7321862676   -0.1869252529   -0.7513297614
H       -1.1166777840    0.7308793905   -0.4179813097
H        0.4098842991   -2.0539996727   -1.1505506051
C        0.4232984194    1.3497662993    1.2568428662
N        1.2198778488    1.3754428438    2.1135727002
6    
Image 7/11, Energy =  -169.0121403233 (+25.503 kcal/mol)
C       -0.2147207371   -1.1460141623   -1.0074379647
C       -0.7111224306   -0.0994966541   -0.6812214107
H       -1.2617387999    0.7704162006   -0.5197926289
H        0.5195693330   -1.8886119083   -0.9313836723
C        0.4496996852    1.1296728044    1.1334134529
N        1.2183129699    1.2340337373    2.0064222364
6    
Image 8/11, Energy =  -168.9961818266 (+35.517 kcal/mol)
C       -0.2529010362   -1.1079089234   -1.0114767972
C       -0.6131661058    0.0024149381   -0.5342835174
H       -1.3294429426    0.7762221111   -0.5783816128
H        0.5755321675   -1.7410551485   -0.7750993453
C        0.4529761351    0.9091169255    1.0058124294
N        1.1670017830    1.1612101184    1.8934288506
6    
Image 9/11, Energy =  -169.0199534462 (+20.600 kcal/mol)
C       -0.2713431646   -1.0745032864   -1.0072646875
C       -0.5030675191    0.0897845584   -0.3775816676
H       -1.3137687870    0.7755860093   -0.5688454466
H        0.5956892254   -1.6759478088   -0.7090019694
C        0.4037449133    0.7747457209    0.8882056336
N        1.0887453420    1.1103348479    1.7744881664
6    
Image 10/11, Energy =  -169.0437609545 (+5.661 kcal/mol)
C       -0.2721093513   -1.0384613434   -0.9953339881
C       -0.4664498990    0.1336943575   -0.3047184047
H       -1.3026915424    0.8069996864   -0.5503883163
H        0.6404231461   -1.5232274468   -0.5526624607
C        0.3524169885    0.6272448767    0.7650856657
N        1.0484106581    0.9937498643    1.6380174988
