6    
Image 0/11, Energy =  -169.0522692293 (+0.249 kcal/mol)
C       -0.3689809232   -1.4576547332   -1.3858823910
C       -0.1536196575   -0.5941379364   -0.5627748996
H        0.0498937432    0.2058682499    0.1931202386
H       -0.5557149982   -2.2230003307   -2.1042277546
C        0.4068909404    1.6172446315    1.5286738868
N        0.6215308952    2.4516801189    2.3310909145
6    
Image 1/11, Energy =  -169.0526666344 (+0.000 kcal/mol)
C       -0.3425132368   -1.4529074605   -1.3555576732
C       -0.2704320410   -0.5194164674   -0.6066560771
H       -0.1479724388    0.3014919975    0.0948470562
H       -0.3886045272   -2.2778691613   -2.0021162217
C        0.3627345268    1.6465480676    1.5008104002
N        0.7867877036    2.3021529966    2.3686725165
6    
Image 2/11, Energy =  -169.0504678940 (+1.380 kcal/mol)
C       -0.3132373777   -1.4366318169   -1.3158200059
C       -0.3855786476   -0.4457261374   -0.6480045299
H       -0.3434318017    0.4111505127    0.0075204307
H       -0.2184907941   -2.3124584660   -1.8816058917
C        0.3316064244    1.6621914510    1.4727065643
N        0.9291322184    2.1214744411    2.3652034446
6    
Image 3/11, Energy =  -169.0470600689 (+3.518 kcal/mol)
C       -0.2802905126   -1.4030791889   -1.2611700378
C       -0.4955658012   -0.3746528609   -0.6883479025
H       -0.5419043959    0.5145206246   -0.0886763578
H       -0.0477012898   -2.3091103643   -1.7301745882
C        0.3222396248    1.6520896167    1.4440617730
N        1.0432224177    1.9202321266    2.3243071659
6    
Image 4/11, Energy =  -169.0424166027 (+6.432 kcal/mol)
C       -0.2458555402   -1.3514930378   -1.1916589247
C       -0.5971320879   -0.3073719761   -0.7266883716
H       -0.7445520944    0.6059350895   -0.1967385169
H        0.1200914199   -2.2635118154   -1.5503439057
C        0.3365115578    1.6003096543    1.4071642362
N        1.1309367741    1.7161320556    2.2582655101
6    
Image 5/11, Energy =  -169.0364283184 (+10.190 kcal/mol)
C       -0.2139717018   -1.2826084253   -1.1122637060
C       -0.6822186499   -0.2434546019   -0.7548814546
H       -0.9442351413    0.6820747488   -0.3138756948
H        0.2778633168   -2.1747326124   -1.3479708419
C        0.3677591469    1.4953918148    1.3507134773
N        1.1948030746    1.5233290470    2.1782782163
6    
Image 6/11, Energy =  -169.0279427123 (+15.514 kcal/mol)
C       -0.1955837395   -1.2044686377   -1.0389876983
C       -0.7330801600   -0.1772437533   -0.7535899233
H       -1.1263056584    0.7406977506   -0.4301261298
H        0.4164262814   -2.0460555648   -1.1331575789
C        0.4059536821    1.3298769415    1.2637008715
N        1.2325896218    1.3571932541    2.0921604444
6    
Image 7/11, Energy =  -169.0120476072 (+25.489 kcal/mol)
C       -0.2104881541   -1.1419806634   -1.0051715275
C       -0.7114086904   -0.0965500707   -0.6825424419
H       -1.2631383607    0.7738196152   -0.5252993449
H        0.5183772384   -1.8901919023   -0.9310412258
C        0.4406638171    1.1145718168    1.1448085310
N        1.2259941403    1.2403311651    1.9992459594
6    
Image 8/11, Energy =  -168.9962095846 (+35.427 kcal/mol)
C       -0.2521018949   -1.1071225914   -1.0124981785
C       -0.6147168895    0.0007658408   -0.5348183670
H       -1.3285271524    0.7771608146   -0.5801567446
H        0.5733087499   -1.7452329057   -0.7799527776
C        0.4535631422    0.9029205674    1.0129934483
N        1.1684740150    1.1715082933    1.8944325850
6    
Image 9/11, Energy =  -169.0185481864 (+21.410 kcal/mol)
C       -0.2719625516   -1.0757314587   -1.0098528780
C       -0.5069210254    0.0856166830   -0.3812102048
H       -1.3135117481    0.7752545292   -0.5708749214
H        0.5941009964   -1.6771003016   -0.7120056808
C        0.4053047108    0.7756581993    0.8955912835
N        1.0929895856    1.1163023882    1.7783524219
6    
Image 10/11, Energy =  -169.0437609545 (+5.588 kcal/mol)
C       -0.2721093513   -1.0384613434   -0.9953339881
C       -0.4664498990    0.1336943575   -0.3047184047
H       -1.3026915424    0.8069996864   -0.5503883163
H        0.6404231461   -1.5232274468   -0.5526624607
C        0.3524169885    0.6272448767    0.7650856657
N        1.0484106581    0.9937498643    1.6380174988
