6    
Image 0/11, Energy =  -169.0522692293 (+0.349 kcal/mol)
C       -0.3689809232   -1.4576547332   -1.3858823910
C       -0.1536196575   -0.5941379364   -0.5627748996
H        0.0498937432    0.2058682499    0.1931202386
H       -0.5557149982   -2.2230003307   -2.1042277546
C        0.4068909404    1.6172446315    1.5286738868
N        0.6215308952    2.4516801189    2.3310909145
6    
Image 1/11, Energy =  -169.0528246022 (+0.000 kcal/mol)
C       -0.3464671024   -1.4524541682   -1.3646633845
C       -0.2754931201   -0.5280101304   -0.6050222860
H       -0.1432793737    0.2861916629    0.1026125896
H       -0.3915539285   -2.2752137650   -2.0152375261
C        0.3851844828    1.6342035293    1.5161544538
N        0.7716090667    2.3352828743    2.3661561705
6    
Image 2/11, Energy =  -169.0507491723 (+1.302 kcal/mol)
C       -0.3213468879   -1.4399896023   -1.3319732074
C       -0.3941442625   -0.4600896903   -0.6464265375
H       -0.3345867525    0.3853755771    0.0225171687
H       -0.2242925228   -2.3096238861   -1.9075166549
C        0.3688728406    1.6386458744    1.4907323033
N        0.9054976242    2.1856817424    2.3726669562
6    
Image 3/11, Energy =  -169.0475018188 (+3.340 kcal/mol)
C       -0.2933754539   -1.4120387861   -1.2817632157
C       -0.5024148469   -0.3949525129   -0.6896007026
H       -0.5262943140    0.4809797763   -0.0671392687
H       -0.0593022091   -2.3098907419   -1.7687311352
C        0.3649638449    1.6280496346    1.4568508303
N        1.0164229643    2.0078526288    2.3503834943
6    
Image 4/11, Energy =  -169.0431407153 (+6.077 kcal/mol)
C       -0.2605212751   -1.3679579274   -1.2169488369
C       -0.6002422118   -0.3318490903   -0.7251580274
H       -0.7206078591    0.5701422695   -0.1692831493
H        0.1011464070   -2.2717070996   -1.5997612348
C        0.3767817855    1.5909413955    1.4104199580
N        1.1034431016    1.8104304701    2.3007312937
6    
Image 5/11, Energy =  -169.0375775842 (+9.568 kcal/mol)
C       -0.2266753809   -1.3044617731   -1.1382876340
C       -0.6826253064   -0.2691746487   -0.7516120680
H       -0.9118225732    0.6506070241   -0.2806409316
H        0.2531106988   -2.1941633214   -1.4035032959
C        0.4019013051    1.5120967043    1.3459574169
N        1.1661112086    1.6050959904    2.2280865136
6    
Image 6/11, Energy =  -169.0295807307 (+14.586 kcal/mol)
C       -0.2037531089   -1.2237922842   -1.0554318357
C       -0.7369059856   -0.1994316335   -0.7555082824
H       -1.0991179675    0.7199706107   -0.4005821918
H        0.3974469859   -2.0684677987   -1.1779881290
C        0.4357560952    1.3684637077    1.2547667225
N        1.2065739540    1.4032573883    2.1347437243
6    
Image 7/11, Energy =  -169.0132788084 (+24.815 kcal/mol)
C       -0.2144257686   -1.1484467389   -1.0060242868
C       -0.7205955474   -0.1058807580   -0.6901098099
H       -1.2627806878    0.7663119542   -0.5175920901
H        0.5193911651   -1.8897470204   -0.9339692275
C        0.4643200691    1.1461908736    1.1278632764
N        1.2140907881    1.2315716624    2.0198321159
6    
Image 8/11, Energy =  -168.9961716323 (+35.550 kcal/mol)
C       -0.2581066952   -1.1068032798   -1.0103813330
C       -0.6116667440    0.0114592434   -0.5313418659
H       -1.3435702164    0.7707488400   -0.5896630449
H        0.5841685518   -1.7128185981   -0.7462583479
C        0.4616103732    0.9047102548    0.9888844892
N        1.1675647731    1.1327035287    1.8887600817
6    
Image 9/11, Energy =  -169.0183372771 (+21.641 kcal/mol)
C       -0.2723802384   -1.0767627804   -1.0049767004
C       -0.5145416873    0.0897966661   -0.3915796592
H       -1.3269071977    0.7714512400   -0.5826423733
H        0.6029913146   -1.6484915036   -0.6822464700
C        0.4101697686    0.7789658346    0.8840619443
N        1.1006680702    1.0850405112    1.7773832283
6    
Image 10/11, Energy =  -169.0437609545 (+5.688 kcal/mol)
C       -0.2721093513   -1.0384613434   -0.9953339881
C       -0.4664498990    0.1336943575   -0.3047184047
H       -1.3026915424    0.8069996864   -0.5503883163
H        0.6404231461   -1.5232274468   -0.5526624607
C        0.3524169885    0.6272448767    0.7650856657
N        1.0484106581    0.9937498643    1.6380174988
