6    
Image 0/11, Energy =  -169.0522692293 (+0.306 kcal/mol)
C       -0.3689809232   -1.4576547332   -1.3858823910
C       -0.1536196575   -0.5941379364   -0.5627748996
H        0.0498937432    0.2058682499    0.1931202386
H       -0.5557149982   -2.2230003307   -2.1042277546
C        0.4068909404    1.6172446315    1.5286738868
N        0.6215308952    2.4516801189    2.3310909145
6    
Image 1/11, Energy =  -169.0527575855 (+0.000 kcal/mol)
C       -0.3447557823   -1.4543100361   -1.3585082538
C       -0.2709362130   -0.5231315507   -0.6060249627
H       -0.1459896522    0.2954459869    0.0977149549
H       -0.3902551130   -2.2766485798   -2.0085399969
C        0.3704189716    1.6441984329    1.5060728379
N        0.7815178040    2.3144457563    2.3692854066
6    
Image 2/11, Energy =  -169.0506215741 (+1.340 kcal/mol)
C       -0.3160608132   -1.4396888758   -1.3198930537
C       -0.3856345062   -0.4505779011   -0.6475315877
H       -0.3401542335    0.4031092911    0.0120998492
H       -0.2215812891   -2.3120202724   -1.8911634735
C        0.3401343955    1.6605350675    1.4771319284
N        0.9232964438    2.1386426701    2.3693563672
6    
Image 3/11, Energy =  -169.0473181299 (+3.413 kcal/mol)
C       -0.2843765984   -1.4085436086   -1.2660880716
C       -0.4940179304   -0.3818000171   -0.6883520635
H       -0.5355013614    0.5027986711   -0.0810925166
H       -0.0539436190   -2.3098331772   -1.7456673472
C        0.3323749178    1.6513781355    1.4473891311
N        1.0354646251    1.9459999725    2.3338108866
6    
Image 4/11, Energy =  -169.0427783310 (+6.262 kcal/mol)
C       -0.2504710034   -1.3581165888   -1.1992088193
C       -0.5948119800   -0.3163694917   -0.7251217904
H       -0.7349255902    0.5935186559   -0.1870686249
H        0.1112728558   -2.2672823927   -1.5691102315
C        0.3467548749    1.6037898487    1.4077408074
N        1.1221808768    1.7444599331    2.2727686747
6    
Image 5/11, Energy =  -169.0368159709 (+10.004 kcal/mol)
C       -0.2184870416   -1.2890230462   -1.1209761759
C       -0.6809528047   -0.2511712795   -0.7530550251
H       -0.9352686188    0.6732954800   -0.3050224088
H        0.2702363147   -2.1809812215   -1.3632903128
C        0.3773698446    1.5043803952    1.3487177724
N        1.1871023104    1.5434996096    2.1936261568
6    
Image 6/11, Energy =  -169.0281887375 (+15.417 kcal/mol)
C       -0.1989674643   -1.2092205502   -1.0441871848
C       -0.7320380709   -0.1818319857   -0.7513644775
H       -1.1211052848    0.7360356910   -0.4229903355
H        0.4126763446   -2.0504864486   -1.1423002454
C        0.4141437395    1.3395051393    1.2588046607
N        1.2252907754    1.3659981145    2.1020375607
6    
Image 7/11, Energy =  -169.0121056108 (+25.509 kcal/mol)
C       -0.2112052524   -1.1438350293   -1.0051924826
C       -0.7108171492   -0.0985546424   -0.6801996923
H       -1.2606052119    0.7724926112   -0.5209092368
H        0.5176119466   -1.8923940393   -0.9359338543
C        0.4440966979    1.1209674607    1.1392823943
N        1.2209189637    1.2413236674    2.0029528894
6    
Image 8/11, Energy =  -168.9962095846 (+35.484 kcal/mol)
C       -0.2521018949   -1.1071225914   -1.0124981785
C       -0.6147168895    0.0007658408   -0.5348183670
H       -1.3285271524    0.7771608146   -0.5801567446
H        0.5733087499   -1.7452329057   -0.7799527776
C        0.4535631422    0.9029205674    1.0129934483
N        1.1684740150    1.1715082933    1.8944325850
6    
Image 9/11, Energy =  -169.0185481864 (+21.467 kcal/mol)
C       -0.2719625516   -1.0757314587   -1.0098528780
C       -0.5069210254    0.0856166830   -0.3812102048
H       -1.3135117481    0.7752545292   -0.5708749214
H        0.5941009964   -1.6771003016   -0.7120056808
C        0.4053047108    0.7756581993    0.8955912835
N        1.0929895856    1.1163023882    1.7783524219
6    
Image 10/11, Energy =  -169.0437609545 (+5.645 kcal/mol)
C       -0.2721093513   -1.0384613434   -0.9953339881
C       -0.4664498990    0.1336943575   -0.3047184047
H       -1.3026915424    0.8069996864   -0.5503883163
H        0.6404231461   -1.5232274468   -0.5526624607
C        0.3524169885    0.6272448767    0.7650856657
N        1.0484106581    0.9937498643    1.6380174988
