6    
Image 0/11, Energy =  -169.0522692293 (+0.811 kcal/mol)
C       -0.3689809232   -1.4576547332   -1.3858823910
C       -0.1536196575   -0.5941379364   -0.5627748996
H        0.0498937432    0.2058682499    0.1931202386
H       -0.5557149982   -2.2230003307   -2.1042277546
C        0.4068909404    1.6172446315    1.5286738868
N        0.6215308952    2.4516801189    2.3310909145
6    
Image 1/11, Energy =  -169.0535614773 (+0.000 kcal/mol)
C       -0.3542540208   -1.4792012890   -1.3906679814
C       -0.2640938870   -0.5632802594   -0.6217239356
H       -0.1383111808    0.2431117335    0.0886379738
H       -0.4176318840   -2.2892165503   -2.0581323663
C        0.3798803463    1.6907888813    1.5737269192
N        0.7944106016    2.3977974413    2.4081593271
6    
Image 2/11, Energy =  -169.0521421828 (+0.891 kcal/mol)
C       -0.3286487265   -1.4697401955   -1.3632626153
C       -0.3523095142   -0.5116484315   -0.6425045835
H       -0.2993290338    0.3263180334    0.0371589703
H       -0.2825285857   -2.3168415750   -1.9845909345
C        0.3252775265    1.7218195860    1.5539738256
N        0.9375382508    2.2500924358    2.3992253994
6    
Image 3/11, Energy =  -169.0501692711 (+2.129 kcal/mol)
C       -0.3033708863   -1.4477301904   -1.3222998846
C       -0.4223251771   -0.4509326273   -0.6670891187
H       -0.4313696213    0.4161684401   -0.0277137817
H       -0.1668952488   -2.3302519324   -1.8764784720
C        0.2924098511    1.7393099493    1.5251264876
N        1.0315509746    2.0734363122    2.3684546645
6    
Image 4/11, Energy =  -169.0461533319 (+4.649 kcal/mol)
C       -0.2640074822   -1.4021846852   -1.2421585606
C       -0.5234670305   -0.3639712779   -0.7040632005
H       -0.6353467312    0.5418399919   -0.1433701599
H        0.0075542836   -2.3171423713   -1.6817206401
C        0.2746431355    1.7632736466    1.4916913646
N        1.1406236131    1.7781847858    2.2796212799
6    
Image 5/11, Energy =  -169.0410089937 (+7.877 kcal/mol)
C       -0.2243077792   -1.3392866184   -1.1484128561
C       -0.6306288598   -0.2880148663   -0.7468966554
H       -0.8671886768    0.6435942705   -0.2924319357
H        0.1865597633   -2.2570111686   -1.4529031477
C        0.3171527104    1.7474309735    1.4682318032
N        1.2184125250    1.4932875347    2.1724128896
6    
Image 6/11, Energy =  -169.0356547918 (+11.237 kcal/mol)
C       -0.1927805692   -1.2578410279   -1.0499293285
C       -0.7244714414   -0.2193461903   -0.7923357475
H       -1.0820907893    0.7178147028   -0.4580926687
H        0.3361117835   -2.1511088026   -1.2106473473
C        0.3836812444    1.6648332337    1.4405443342
N        1.2795496020    1.2456480535    2.0704607266
6    
Image 7/11, Energy =  -169.0298061646 (+14.907 kcal/mol)
C       -0.1730887103   -1.1598879076   -0.9679751691
C       -0.7958625818   -0.1509534364   -0.8277696069
H       -1.2507455159    0.7709323489   -0.5971002224
H        0.4585517054   -1.9985610199   -0.9823309954
C        0.4150889124    1.4311576334    1.3702719390
N        1.3460563128    1.1073124856    2.0049042020
6    
Image 8/11, Energy =  -169.0163311389 (+23.362 kcal/mol)
C       -0.1901469977   -1.1094900175   -0.9568761665
C       -0.7633699925   -0.0780306175   -0.7504211830
H       -1.3020386923    0.8097686598   -0.6142357626
H        0.5289575487   -1.8631981695   -0.8337685554
C        0.4197398536    1.1368080252    1.1968075316
N        1.3068585891    1.1041420751    1.9584942499
6    
Image 9/11, Energy =  -168.9961757669 (+36.010 kcal/mol)
C       -0.2583157860   -1.1004602222   -1.0104194051
C       -0.6121321603    0.0160691936   -0.5450033814
H       -1.3044972851    0.8095029131   -0.6167563534
H        0.5444179831   -1.7530641731   -0.7406454158
C        0.4383527744    0.8931941584    1.0280940859
N        1.1921747588    1.1347579999    1.8847305186
6    
Image 10/11, Energy =  -169.0437609544 (+6.150 kcal/mol)
C       -0.2721093513   -1.0384613434   -0.9953339881
C       -0.4664498990    0.1336943575   -0.3047184047
H       -1.3026915424    0.8069996864   -0.5503883163
H        0.6404231461   -1.5232274468   -0.5526624607
C        0.3524169885    0.6272448767    0.7650856657
N        1.0484106581    0.9937498643    1.6380174988
