6    
Image 0/11, Energy =  -169.0522692293 (+0.185 kcal/mol)
C       -0.3689809232   -1.4576547332   -1.3858823910
C       -0.1536196575   -0.5941379364   -0.5627748996
H        0.0498937432    0.2058682499    0.1931202386
H       -0.5557149982   -2.2230003307   -2.1042277546
C        0.4068909404    1.6172446315    1.5286738868
N        0.6215308952    2.4516801189    2.3310909145
6    
Image 1/11, Energy =  -169.0525634340 (+0.000 kcal/mol)
C       -0.3412719813   -1.4513691234   -1.3531925735
C       -0.2708789628   -0.5150202426   -0.6077406621
H       -0.1514422349    0.3075606232    0.0926616499
H       -0.3853755360   -2.2792752901   -1.9959342864
C        0.3575806525    1.6460149497    1.4970922236
N        0.7913880708    2.2920890485    2.3671136218
6    
Image 2/11, Energy =  -169.0501596228 (+1.508 kcal/mol)
C       -0.3101161344   -1.4318573773   -1.3100464767
C       -0.3888153194   -0.4348001651   -0.6517739119
H       -0.3529762658    0.4245170811    0.0011167316
H       -0.2091098033   -2.3137750389   -1.8647366640
C        0.3222484713    1.6591362281    1.4677420531
N        0.9387691042    2.0967792627    2.3576982346
6    
Image 3/11, Energy =  -169.0465599986 (+3.767 kcal/mol)
C       -0.2761301451   -1.3956467695   -1.2516085724
C       -0.5006635657   -0.3608096646   -0.6945743318
H       -0.5562857006    0.5303408059   -0.0990946595
H       -0.0338780372   -2.3064222825   -1.7060679510
C        0.3120476935    1.6445953402    1.4411524663
N        1.0549098013    1.8879425572    2.3101931479
6    
Image 4/11, Energy =  -169.0419336458 (+6.670 kcal/mol)
C       -0.2420290371   -1.3439696370   -1.1833650705
C       -0.6014346842   -0.2972093898   -0.7310854958
H       -0.7568155534    0.6178827468   -0.2076122446
H        0.1319959239   -2.2576866941   -1.5288832515
C        0.3274738491    1.5906927561    1.4078899272
N        1.1408095321    1.6902901569    2.2430561892
6    
Image 5/11, Energy =  -169.0360414203 (+10.368 kcal/mol)
C       -0.2115390369   -1.2763553429   -1.1068976194
C       -0.6854854893   -0.2367226413   -0.7585595984
H       -0.9538176051    0.6898117111   -0.3243355506
H        0.2871859194   -2.1677981518   -1.3305742446
C        0.3593992377    1.4852411333    1.3552646737
N        1.2042570176    1.5058232804    2.1651023565
6    
Image 6/11, Energy =  -169.0276799988 (+15.615 kcal/mol)
C       -0.1956926436   -1.2008835894   -1.0376432005
C       -0.7342818826   -0.1728109315   -0.7568732490
H       -1.1330775094    0.7443047135   -0.4384259187
H        0.4221452978   -2.0396719764   -1.1198957719
C        0.4007482443    1.3227616956    1.2688734670
N        1.2401585039    1.3463000749    2.0839646470
6    
Image 7/11, Energy =  -169.0119181778 (+25.505 kcal/mol)
C       -0.2107762189   -1.1409655243   -1.0051121549
C       -0.7116894298   -0.0950034771   -0.6835263631
H       -1.2651817275    0.7746212991   -0.5278506397
H        0.5202557288   -1.8868419162   -0.9254202547
C        0.4389100203    1.1127473859    1.1449608550
N        1.2284816060    1.2354422049    1.9969484938
6    
Image 8/11, Energy =  -168.9962095846 (+35.363 kcal/mol)
C       -0.2521018949   -1.1071225914   -1.0124981785
C       -0.6147168895    0.0007658408   -0.5348183670
H       -1.3285271524    0.7771608146   -0.5801567446
H        0.5733087499   -1.7452329057   -0.7799527776
C        0.4535631422    0.9029205674    1.0129934483
N        1.1684740150    1.1715082933    1.8944325850
6    
Image 9/11, Energy =  -169.0185481864 (+21.345 kcal/mol)
C       -0.2719625516   -1.0757314587   -1.0098528780
C       -0.5069210254    0.0856166830   -0.3812102048
H       -1.3135117481    0.7752545292   -0.5708749214
H        0.5941009964   -1.6771003016   -0.7120056808
C        0.4053047108    0.7756581993    0.8955912835
N        1.0929895856    1.1163023882    1.7783524219
6    
Image 10/11, Energy =  -169.0437609545 (+5.524 kcal/mol)
C       -0.2721093513   -1.0384613434   -0.9953339881
C       -0.4664498990    0.1336943575   -0.3047184047
H       -1.3026915424    0.8069996864   -0.5503883163
H        0.6404231461   -1.5232274468   -0.5526624607
C        0.3524169885    0.6272448767    0.7650856657
N        1.0484106581    0.9937498643    1.6380174988
