6    
Image 0/11, Energy =  -169.0522692293 (+0.249 kcal/mol)
C       -0.3689809232   -1.4576547332   -1.3858823910
C       -0.1536196575   -0.5941379364   -0.5627748996
H        0.0498937432    0.2058682499    0.1931202386
H       -0.5557149982   -2.2230003307   -2.1042277546
C        0.4068909404    1.6172446315    1.5286738868
N        0.6215308952    2.4516801189    2.3310909145
6    
Image 1/11, Energy =  -169.0526666344 (+0.000 kcal/mol)
C       -0.3425132368   -1.4529074605   -1.3555576732
C       -0.2704320410   -0.5194164674   -0.6066560771
H       -0.1479724388    0.3014919975    0.0948470562
H       -0.3886045272   -2.2778691613   -2.0021162217
C        0.3627345268    1.6465480676    1.5008104002
N        0.7867877036    2.3021529966    2.3686725165
6    
Image 2/11, Energy =  -169.0504201778 (+1.410 kcal/mol)
C       -0.3128077802   -1.4358630130   -1.3150434053
C       -0.3857592883   -0.4440398033   -0.6484676298
H       -0.3447634580    0.4131900462    0.0066481404
H       -0.2172450233   -2.3126799166   -1.8789867863
C        0.3302340206    1.6617664770    1.4720070896
N        0.9303415643    2.1176261980    2.3638425966
6    
Image 3/11, Energy =  -169.0469810647 (+3.568 kcal/mol)
C       -0.2795874304   -1.4016514371   -1.2600420100
C       -0.4962676362   -0.3726234626   -0.6888558203
H       -0.5440824729    0.5172415844   -0.0903591837
H       -0.0456487528   -2.3087916421   -1.7261803161
C        0.3205289368    1.6508414875    1.4432695012
N        1.0450573916    1.9149834212    2.3221678955
6    
Image 4/11, Energy =  -169.0423184883 (+6.494 kcal/mol)
C       -0.2450364148   -1.3498325496   -1.1901364888
C       -0.5979257120   -0.3054057300   -0.7271870129
H       -0.7469127715    0.6086189504   -0.1989824736
H        0.1224048391   -2.2624154049   -1.5459316717
C        0.3345347945    1.5983673265    1.4070736646
N        1.1329352895    1.7106673695    2.2551640111
6    
Image 5/11, Energy =  -169.0363458271 (+10.241 kcal/mol)
C       -0.2134035820   -1.2814197947   -1.1109277709
C       -0.6827034790   -0.2420955621   -0.7552905716
H       -0.9460356388    0.6837669919   -0.3157985887
H        0.2796968960   -2.1733530113   -1.3448593167
C        0.3657286571    1.4930310696    1.3512566024
N        1.1967172065    1.5200702838    2.1756196409
6    
Image 6/11, Energy =  -169.0279072644 (+15.537 kcal/mol)
C       -0.1955960207   -1.2038973784   -1.0387183805
C       -0.7332942483   -0.1764453251   -0.7543587959
H       -1.1274523518    0.7413833153   -0.4317149011
H        0.4173940290   -2.0450147375   -1.1309236444
C        0.4048814149    1.3285074482    1.2652121127
N        1.2340671994    1.3554666661    2.0905035921
6    
Image 7/11, Energy =  -169.0120422655 (+25.492 kcal/mol)
C       -0.2106499529   -1.1417831710   -1.0053546450
C       -0.7115287505   -0.0961019452   -0.6833023780
H       -1.2638090709    0.7739554939   -0.5260325924
H        0.5188555564   -1.8892722448   -0.9292542424
C        0.4399352533    1.1142215970    1.1450002923
N        1.2271969596    1.2389802220    1.9989435037
6    
Image 8/11, Energy =  -168.9962095846 (+35.427 kcal/mol)
C       -0.2521018949   -1.1071225914   -1.0124981785
C       -0.6147168895    0.0007658408   -0.5348183670
H       -1.3285271524    0.7771608146   -0.5801567446
H        0.5733087499   -1.7452329057   -0.7799527776
C        0.4535631422    0.9029205674    1.0129934483
N        1.1684740150    1.1715082933    1.8944325850
6    
Image 9/11, Energy =  -169.0185481864 (+21.410 kcal/mol)
C       -0.2719625516   -1.0757314587   -1.0098528780
C       -0.5069210254    0.0856166830   -0.3812102048
H       -1.3135117481    0.7752545292   -0.5708749214
H        0.5941009964   -1.6771003016   -0.7120056808
C        0.4053047108    0.7756581993    0.8955912835
N        1.0929895856    1.1163023882    1.7783524219
6    
Image 10/11, Energy =  -169.0437609545 (+5.588 kcal/mol)
C       -0.2721093513   -1.0384613434   -0.9953339881
C       -0.4664498990    0.1336943575   -0.3047184047
H       -1.3026915424    0.8069996864   -0.5503883163
H        0.6404231461   -1.5232274468   -0.5526624607
C        0.3524169885    0.6272448767    0.7650856657
N        1.0484106581    0.9937498643    1.6380174988
