6    
Image 0/11, Energy =  -169.0522692293 (+0.000 kcal/mol)
C       -0.3689809232   -1.4576547332   -1.3858823910
C       -0.1536196575   -0.5941379364   -0.5627748996
H        0.0498937432    0.2058682499    0.1931202386
H       -0.5557149982   -2.2230003307   -2.1042277546
C        0.4068909404    1.6172446315    1.5286738868
N        0.6215308952    2.4516801189    2.3310909145
6    
Image 1/11, Energy =  -169.0522614481 (+0.005 kcal/mol)
C       -0.3537176058   -1.4522265456   -1.3627093750
C       -0.2697796035   -0.5175365425   -0.6119477141
H       -0.1374533327    0.2713686633    0.1233429419
H       -0.4020665709   -2.2636812858   -2.0272888807
C        0.4417445142    1.5741156920    1.5421745880
N        0.7212726360    2.3879600239    2.3364284591
6    
Image 2/11, Energy =  -169.0492909793 (+1.869 kcal/mol)
C       -0.3351320924   -1.4368420294   -1.3309281884
C       -0.3875381723   -0.4513388863   -0.6506335052
H       -0.3211075772    0.3571912954    0.0609618576
H       -0.2419611015   -2.2879638737   -1.9357415536
C        0.4688520509    1.5232373542    1.5264517809
N        0.8168869059    2.2957161295    2.3298896244
6    
Image 3/11, Energy =  -169.0453266860 (+4.357 kcal/mol)
C       -0.2989193043   -1.4108638681   -1.2804686913
C       -0.5046313068   -0.3916994030   -0.6858972388
H       -0.5156485419    0.4582014852   -0.0363001048
H       -0.0811044095   -2.2873206492   -1.8067401047
C        0.4776081744    1.4752967288    1.4865177492
N        0.9226954147    2.1563856900    2.3228883912
6    
Image 4/11, Energy =  -169.0405704682 (+7.341 kcal/mol)
C       -0.2517407331   -1.3644438919   -1.2142033212
C       -0.6145872668   -0.3363175688   -0.7220880427
H       -0.7287957463    0.5494156625   -0.1429437571
H        0.0811458022   -2.2575953317   -1.6456377538
C        0.4852803584    1.4354612901    1.4184792959
N        1.0286975936    1.9734798263    2.3063935547
6    
Image 5/11, Energy =  -169.0353901730 (+10.592 kcal/mol)
C       -0.2089841436   -1.3032599423   -1.1304513644
C       -0.6970186344   -0.2760951326   -0.7419328894
H       -0.9311320180    0.6399450849   -0.2638786108
H        0.2367613137   -2.1946491860   -1.4527820730
C        0.4828885935    1.4040692140    1.3305111819
N        1.1174848738    1.7299899488    2.2585337481
6    
Image 6/11, Energy =  -169.0291252369 (+14.523 kcal/mol)
C       -0.1843278884   -1.2274395905   -1.0365839298
C       -0.7444684286   -0.2116965910   -0.7341465721
H       -1.1092876507    0.7188826549   -0.3893259327
H        0.3847543637   -2.0888269774   -1.2354291798
C        0.4819866583    1.3479215042    1.2286926644
N        1.1713429388    1.4611589771    2.1667929354
6    
Image 7/11, Energy =  -169.0171051967 (+22.066 kcal/mol)
C       -0.1890962982   -1.1543051938   -0.9689895249
C       -0.7317792535   -0.1245772190   -0.6781368631
H       -1.2456459800    0.7737083264   -0.4956016658
H        0.5089941961   -1.9416332468   -1.0022658764
C        0.4757095496    1.2283313318    1.1061102659
N        1.1818177642    1.2184759926    2.0388836491
6    
Image 8/11, Energy =  -168.9964996512 (+34.996 kcal/mol)
C       -0.2313241546   -1.1086710244   -0.9688117682
C       -0.6269767982   -0.0164799224   -0.5465808234
H       -1.3141525735    0.7842981090   -0.5588284226
H        0.5714272481   -1.7988014491   -0.8261151343
C        0.4534593994    1.0326530634    0.9850332370
N        1.1475669070    1.1070012145    1.9153029070
6    
Image 9/11, Energy =  -169.0167611555 (+22.282 kcal/mol)
C       -0.2670600601   -1.0737942799   -0.9860531995
C       -0.4954123952    0.0914103173   -0.3732707243
H       -1.3081680492    0.7668757298   -0.5580815729
H        0.5894664433   -1.7049236796   -0.7444549585
C        0.4034473632    0.8322116631    0.8710206115
N        1.0777267183    1.0882202371    1.7908398387
6    
Image 10/11, Energy =  -169.0437609545 (+5.339 kcal/mol)
C       -0.2721093513   -1.0384613434   -0.9953339881
C       -0.4664498990    0.1336943575   -0.3047184047
H       -1.3026915424    0.8069996864   -0.5503883163
H        0.6404231461   -1.5232274468   -0.5526624607
C        0.3524169885    0.6272448767    0.7650856657
N        1.0484106581    0.9937498643    1.6380174988
