6    
Image 0/11, Energy =  -169.0522692293 (+0.286 kcal/mol)
C       -0.3689809232   -1.4576547332   -1.3858823910
C       -0.1536196575   -0.5941379364   -0.5627748996
H        0.0498937432    0.2058682499    0.1931202386
H       -0.5557149982   -2.2230003307   -2.1042277546
C        0.4068909404    1.6172446315    1.5286738868
N        0.6215308952    2.4516801189    2.3310909145
6    
Image 1/11, Energy =  -169.0527257621 (+0.000 kcal/mol)
C       -0.3438246028   -1.4537946211   -1.3571406555
C       -0.2706314312   -0.5219831240   -0.6062638145
H       -0.1464965229    0.2978135596    0.0962042414
H       -0.3898328874   -2.2770307824   -2.0060837053
C        0.3671992130    1.6455374572    1.5039744413
N        0.7835862433    2.3094575147    2.3693094890
6    
Image 2/11, Energy =  -169.0505628745 (+1.357 kcal/mol)
C       -0.3147017199   -1.4388960660   -1.3176178852
C       -0.3852060640   -0.4484500471   -0.6474377155
H       -0.3410685079    0.4066352744    0.0098343279
H       -0.2206353348   -2.3120160911   -1.8873058470
C        0.3354947114    1.6625723219    1.4748532873
N        0.9261169016    2.1301545828    2.3676738747
6    
Image 3/11, Energy =  -169.0472244869 (+3.452 kcal/mol)
C       -0.2824828315   -1.4066039022   -1.2631054046
C       -0.4939193781   -0.3788070070   -0.6882726951
H       -0.5375999456    0.5077572459   -0.0844353236
H       -0.0518673692   -2.3094138067   -1.7395418622
C        0.3269133986    1.6533625907    1.4459114641
N        1.0389561746    1.9337048362    2.3294438405
6    
Image 4/11, Energy =  -169.0426303054 (+6.335 kcal/mol)
C       -0.2481257817   -1.3552915480   -1.1951622887
C       -0.5952830194   -0.3121783779   -0.7259900783
H       -0.7390951497    0.5988983654   -0.1912755562
H        0.1147296030   -2.2656288866   -1.5609258241
C        0.3418135859    1.6037106252    1.4075047561
N        1.1259608024    1.7304897996    2.2658490112
6    
Image 5/11, Energy =  -169.0366264020 (+10.103 kcal/mol)
C       -0.2157716270   -1.2854638850   -1.1164139187
C       -0.6812866183   -0.2469648593   -0.7540431136
H       -0.9400284381    0.6777549045   -0.3095464136
H        0.2736336691   -2.1780030321   -1.3550223685
C        0.3725665190    1.5009334313    1.3492802848
N        1.1908865028    1.5317433841    2.1857455316
6    
Image 6/11, Energy =  -169.0280138272 (+15.507 kcal/mol)
C       -0.1964256470   -1.2062161281   -1.0408246538
C       -0.7320732218   -0.1791668069   -0.7515684924
H       -1.1238645753    0.7386802566   -0.4263193023
H        0.4142784996   -2.0483916707   -1.1379629641
C        0.4098189419    1.3337417732    1.2607340627
N        1.2282660475    1.3613525471    2.0959413207
6    
Image 7/11, Energy =  -169.0120520776 (+25.523 kcal/mol)
C       -0.2101158674   -1.1426506679   -1.0044557416
C       -0.7107639965   -0.0977708724   -0.6801206667
H       -1.2611642808    0.7734352754   -0.5228654918
H        0.5172419403   -1.8926932441   -0.9360940763
C        0.4416385315    1.1161835911    1.1425470762
N        1.2231636527    1.2434959319    2.0009888968
6    
Image 8/11, Energy =  -168.9962095846 (+35.464 kcal/mol)
C       -0.2521018949   -1.1071225914   -1.0124981785
C       -0.6147168895    0.0007658408   -0.5348183670
H       -1.3285271524    0.7771608146   -0.5801567446
H        0.5733087499   -1.7452329057   -0.7799527776
C        0.4535631422    0.9029205674    1.0129934483
N        1.1684740150    1.1715082933    1.8944325850
6    
Image 9/11, Energy =  -169.0185481864 (+21.447 kcal/mol)
C       -0.2719625516   -1.0757314587   -1.0098528780
C       -0.5069210254    0.0856166830   -0.3812102048
H       -1.3135117481    0.7752545292   -0.5708749214
H        0.5941009964   -1.6771003016   -0.7120056808
C        0.4053047108    0.7756581993    0.8955912835
N        1.0929895856    1.1163023882    1.7783524219
6    
Image 10/11, Energy =  -169.0437609545 (+5.626 kcal/mol)
C       -0.2721093513   -1.0384613434   -0.9953339881
C       -0.4664498990    0.1336943575   -0.3047184047
H       -1.3026915424    0.8069996864   -0.5503883163
H        0.6404231461   -1.5232274468   -0.5526624607
C        0.3524169885    0.6272448767    0.7650856657
N        1.0484106581    0.9937498643    1.6380174988
