6    
Image 0/11, Energy =  -169.0522692293 (+0.138 kcal/mol)
C       -0.3689809232   -1.4576547332   -1.3858823910
C       -0.1536196575   -0.5941379364   -0.5627748996
H        0.0498937432    0.2058682499    0.1931202386
H       -0.5557149982   -2.2230003307   -2.1042277546
C        0.4068909404    1.6172446315    1.5286738868
N        0.6215308952    2.4516801189    2.3310909145
6    
Image 1/11, Energy =  -169.0524897705 (+0.000 kcal/mol)
C       -0.3403776126   -1.4502753209   -1.3516406195
C       -0.2718688499   -0.5120726843   -0.6085371534
H       -0.1539870163    0.3115974318    0.0908867929
H       -0.3828192740   -2.2801348444   -1.9916891801
C        0.3544818921    1.6454366997    1.4950228705
N        0.7945708841    2.2854486823    2.3659572526
6    
Image 2/11, Energy =  -169.0501119294 (+1.492 kcal/mol)
C       -0.3095770043   -1.4311958309   -1.3090780083
C       -0.3895586669   -0.4332539494   -0.6523310255
H       -0.3545368216    0.4265427370   -0.0001148571
H       -0.2075499619   -2.3138819103   -1.8622243879
C        0.3207986256    1.6587985122    1.4671189418
N        0.9404238817    2.0929904360    2.3566293048
6    
Image 3/11, Energy =  -169.0464713642 (+3.777 kcal/mol)
C       -0.2752823049   -1.3943995482   -1.2498236666
C       -0.5017764526   -0.3584146532   -0.6957153353
H       -0.5590225339    0.5332036343   -0.1012520073
H       -0.0312342879   -2.3059276513   -1.7017477664
C        0.3099951112    1.6435616975    1.4408780630
N        1.0573205230    1.8819765107    2.3076608073
6    
Image 4/11, Energy =  -169.0417614007 (+6.732 kcal/mol)
C       -0.2407226893   -1.3413759951   -1.1802669815
C       -0.6030467162   -0.2934426191   -0.7333481561
H       -0.7619242840    0.6220448791   -0.2118701274
H        0.1366718884   -2.2555566892   -1.5208404171
C        0.3241229272    1.5877170469    1.4086858906
N        1.1448989058    1.6806133230    2.2376398643
6    
Image 5/11, Energy =  -169.0359059699 (+10.406 kcal/mol)
C       -0.2108736506   -1.2740168713   -1.1052396886
C       -0.6866322388   -0.2340245424   -0.7605012131
H       -0.9580603338    0.6925406299   -0.3285790808
H        0.2907515212   -2.1652619915   -1.3233458889
C        0.3568032860    1.4824090010    1.3569978283
N        1.2080114389    1.4983537646    2.1606680760
6    
Image 6/11, Energy =  -169.0276032502 (+15.617 kcal/mol)
C       -0.1955621215   -1.1999096979   -1.0371042814
C       -0.7346454192   -0.1718241390   -0.7572993939
H       -1.1347032879    0.7451693998   -0.4401666824
H        0.4235358865   -2.0380731804   -1.1167930872
C        0.3998651765    1.3212371193    1.2691751219
N        1.2415097740    1.3434004855    2.0821882950
6    
Image 7/11, Energy =  -169.0117671319 (+25.554 kcal/mol)
C       -0.2107650064   -1.1403464682   -1.0046218187
C       -0.7113717954   -0.0941259849   -0.6826531362
H       -1.2660469773    0.7751884752   -0.5290652518
H        0.5211504514   -1.8853423497   -0.9235333998
C        0.4382140930    1.1110479627    1.1446086379
N        1.2288191989    1.2335783586    1.9952649121
6    
Image 8/11, Energy =  -168.9962095846 (+35.316 kcal/mol)
C       -0.2521018949   -1.1071225914   -1.0124981785
C       -0.6147168895    0.0007658408   -0.5348183670
H       -1.3285271524    0.7771608146   -0.5801567446
H        0.5733087499   -1.7452329057   -0.7799527776
C        0.4535631422    0.9029205674    1.0129934483
N        1.1684740150    1.1715082933    1.8944325850
6    
Image 9/11, Energy =  -169.0185481864 (+21.299 kcal/mol)
C       -0.2719625516   -1.0757314587   -1.0098528780
C       -0.5069210254    0.0856166830   -0.3812102048
H       -1.3135117481    0.7752545292   -0.5708749214
H        0.5941009964   -1.6771003016   -0.7120056808
C        0.4053047108    0.7756581993    0.8955912835
N        1.0929895856    1.1163023882    1.7783524219
6    
Image 10/11, Energy =  -169.0437609545 (+5.477 kcal/mol)
C       -0.2721093513   -1.0384613434   -0.9953339881
C       -0.4664498990    0.1336943575   -0.3047184047
H       -1.3026915424    0.8069996864   -0.5503883163
H        0.6404231461   -1.5232274468   -0.5526624607
C        0.3524169885    0.6272448767    0.7650856657
N        1.0484106581    0.9937498643    1.6380174988
