3    
Image 0/21, Energy =   -93.4092025797 (+13.416 kcal/mol)
C       -0.7519862184   -0.8272338399    0.0000000000
N        0.0394753354    0.0434721365    0.0000000000
H        0.7125108830    0.7837617034    0.0000000000
3    
Image 1/21, Energy =   -93.4060103932 (+15.419 kcal/mol)
C       -0.6690475843   -0.8572104949   -0.0000000000
N       -0.0867822850    0.1641102770    0.0000000000
H        0.7558331485    0.6931075529   -0.0000000000
3    
Image 2/21, Energy =   -93.3975176780 (+20.748 kcal/mol)
C       -0.5512915946   -0.8641321622   -0.0000000000
N       -0.2009714293    0.2691353809    0.0000000000
H        0.7522514023    0.5950045387    0.0000000000
3    
Image 3/21, Energy =   -93.3919441803 (+24.246 kcal/mol)
C       -0.4735109238   -0.8590552056   -0.0000000000
N       -0.2517093310    0.3036715562    0.0000000000
H        0.7252057577    0.5553910413    0.0000000000
3    
Image 4/21, Energy =   -93.3804302424 (+31.471 kcal/mol)
C       -0.3373455170   -0.8314691596    0.0000000000
N       -0.3406648116    0.3350222718    0.0000000000
H        0.6780007153    0.4964556606   -0.0000000000
3    
Image 5/21, Energy =   -93.3729747391 (+36.149 kcal/mol)
C       -0.2011801101   -0.8038831135    0.0000000000
N       -0.4296202921    0.3663729873   -0.0000000000
H        0.6307956728    0.4375202800   -0.0000000000
3    
Image 6/21, Energy =   -93.3621026851 (+42.972 kcal/mol)
C       -0.1044115284   -0.7274290113   -0.0000000000
N       -0.5274172352    0.3665305105   -0.0000000000
H        0.6318235612    0.3609111467   -0.0000000000
3    
Image 7/21, Energy =   -93.3534956760 (+48.373 kcal/mol)
C       -0.0587594891   -0.6589380611   -0.0000000000
N       -0.6308570516    0.3478229955   -0.0000000000
H        0.6896100717    0.3111333966   -0.0000000000
3    
Image 8/21, Energy =   -93.3563188966 (+46.601 kcal/mol)
C       -0.0131074497   -0.5904471109   -0.0000000000
N       -0.7342968679    0.3291154806    0.0000000000
H        0.7473965821    0.2613556464    0.0000000000
3    
Image 9/21, Energy =   -93.3732084864 (+36.003 kcal/mol)
C        0.0029966495   -0.4775640113   -0.0000000000
N       -0.8600605619    0.2875316412   -0.0000000000
H        0.8570745333    0.1900581991   -0.0000000000
3    
Image 10/21, Energy =   -93.4001172198 (+19.117 kcal/mol)
C        0.0124818706   -0.3127858216    0.0000000000
N       -0.9941502817    0.1750043155   -0.0000000000
H        0.9816895806    0.1378091222    0.0000000000
3    
Image 11/21, Energy =   -93.4164885086 (+8.844 kcal/mol)
C        0.0552334882   -0.2316290220    0.0000000000
N       -1.0837056335    0.0742646226   -0.0000000000
H        1.0284821308    0.1573949005    0.0000000000
3    
Image 12/21, Energy =   -93.4205196975 (+6.314 kcal/mol)
C        0.0304780675   -0.1217771721    0.0000000000
N       -1.0797499421   -0.1370076319   -0.0000000000
H        1.0492560635    0.2588145992   -0.0000000000
3    
Image 13/21, Energy =   -93.4280877444 (+1.565 kcal/mol)
C        0.0498348552   -0.0923694461    0.0000000000
N       -1.0965239349   -0.2119774724    0.0000000000
H        1.0466672587    0.3043704931    0.0000000000
3    
Image 14/21, Energy =   -93.4267869775 (+2.382 kcal/mol)
C        0.0328147229   -0.0519348239   -0.0000000000
N       -1.0444085588   -0.3777784833    0.0000000000
H        1.0115708286    0.4297170715   -0.0000000000
3    
Image 15/21, Energy =   -93.4300960743 (+0.305 kcal/mol)
C        0.0393615697   -0.0201095978   -0.0000000000
N       -0.9949365687   -0.5217768498   -0.0000000000
H        0.9555652264    0.5418765880   -0.0000000000
3    
Image 16/21, Energy =   -93.4297641429 (+0.513 kcal/mol)
C        0.0266074382   -0.0055717858    0.0000000000
N       -0.9258482869   -0.6373923175   -0.0000000000
H        0.8992432488    0.6429471883    0.0000000000
3    
Image 17/21, Energy =   -93.4298514437 (+0.459 kcal/mol)
C        0.0324806687    0.0178634138   -0.0000000000
N       -0.8618826363   -0.7450172305    0.0000000000
H        0.8294070764    0.7271374609   -0.0000000000
3    
Image 18/21, Energy =   -93.4299538971 (+0.394 kcal/mol)
C        0.0510470403   -0.0134716596    0.0000000000
N       -0.9651838864   -0.5864937841    0.0000000000
H        0.9141255527    0.5999528290    0.0000000000
3    
Image 19/21, Energy =   -93.4279584643 (+1.647 kcal/mol)
C        0.0482533097    0.0156221369   -0.0000000000
N       -0.8899746238   -0.7147607088    0.0000000000
H        0.8417285343    0.6991188185    0.0000000000
3    
Image 20/21, Energy =   -93.4305823703 (+0.000 kcal/mol)
C        0.0194260556    0.0213642891    0.0000000000
N       -0.7589320377   -0.8347584640    0.0000000000
H        0.7395059821    0.8133941749    0.0000000000
