3    
Image 0/21, Energy =   -93.4092025797 (+13.417 kcal/mol)
C       -0.7519862184   -0.8272338399    0.0000000000
N        0.0394753354    0.0434721365    0.0000000000
H        0.7125108830    0.7837617034    0.0000000000
3    
Image 1/21, Energy =   -93.4072078168 (+14.668 kcal/mol)
C       -0.6457901728   -0.8916100772   -0.0000000000
N       -0.0715353274    0.1372736051    0.0000000000
H        0.7173043097    0.7543708498   -0.0000000000
3    
Image 2/21, Energy =   -93.4027070940 (+17.493 kcal/mol)
C       -0.4955998314   -0.9422864805    0.0000000000
N       -0.1702449234    0.1951204126   -0.0000000000
H        0.6657905246    0.7472123016   -0.0000000000
3    
Image 3/21, Energy =   -93.3973723975 (+20.840 kcal/mol)
C       -0.3913490746   -0.9469486191    0.0000000000
N       -0.2454201978    0.2325645700   -0.0000000000
H        0.6367007554    0.7144242107   -0.0000000000
3    
Image 4/21, Energy =   -93.3862592983 (+27.814 kcal/mol)
C       -0.2571242207   -0.9056085424   -0.0000000000
N       -0.3563442560    0.2868297967   -0.0000000000
H        0.6134136793    0.6187997899   -0.0000000000
3    
Image 5/21, Energy =   -93.3742662685 (+35.339 kcal/mol)
C       -0.1528287925   -0.8304352869   -0.0000000000
N       -0.4543646015    0.3356857070   -0.0000000000
H        0.6071730659    0.4947734606   -0.0000000000
3    
Image 6/21, Energy =   -93.3639408592 (+41.819 kcal/mol)
C       -0.0801362845   -0.7494876616   -0.0000000000
N       -0.5466654311    0.3592735614   -0.0000000000
H        0.6267779829    0.3902402568   -0.0000000000
3    
Image 7/21, Energy =   -93.3552232655 (+47.289 kcal/mol)
C       -0.0265680251   -0.6354268385   -0.0000000000
N       -0.6922590586    0.3470760359   -0.0000000000
H        0.7187924740    0.2883953651    0.0000000000
3    
Image 8/21, Energy =   -93.3571151738 (+46.102 kcal/mol)
C       -0.0175530269   -0.5983922682   -0.0000000000
N       -0.7399612786    0.3405406713   -0.0000000000
H        0.7574614297    0.2579024665    0.0000000000
3    
Image 9/21, Energy =   -93.3736414652 (+35.732 kcal/mol)
C       -0.0019931949   -0.4897220408   -0.0000000000
N       -0.8611342669    0.3074260049   -0.0000000000
H        0.8630926497    0.1823514017    0.0000000000
3    
Image 10/21, Energy =   -93.4067030347 (+14.985 kcal/mol)
C        0.0100423879   -0.3130786622   -0.0000000000
N       -1.0092752840    0.2409517062    0.0000000000
H        0.9992150360    0.0722090416    0.0000000000
3    
Image 11/21, Energy =   -93.4254430123 (+3.226 kcal/mol)
C        0.0188765409   -0.1480710958   -0.0000000000
N       -1.0914037171    0.1756125569   -0.0000000000
H        1.0725048605   -0.0274611903   -0.0000000000
3    
Image 12/21, Energy =   -93.4304425331 (+0.088 kcal/mol)
C        0.0269929475    0.0269809738    0.0000000000
N       -1.1157719456   -0.1535055654   -0.0000000000
H        1.0887607325    0.1265267428    0.0000000000
3    
Image 13/21, Energy =   -93.4303951973 (+0.118 kcal/mol)
C        0.0239317723    0.0319131161    0.0000000000
N       -1.1003626276   -0.2351820822    0.0000000000
H        1.0764068384    0.2032630964    0.0000000000
3    
Image 14/21, Energy =   -93.4305077836 (+0.047 kcal/mol)
C        0.0209488262    0.0265088468    0.0000000000
N       -1.0509135854   -0.4073610518    0.0000000000
H        1.0299357408    0.3808302890    0.0000000000
3    
Image 15/21, Energy =   -93.4305554226 (+0.017 kcal/mol)
C        0.0205297558    0.0232271501    0.0000000000
N       -0.9916277499   -0.5376566035   -0.0000000000
H        0.9710820485    0.5143960979   -0.0000000000
3    
Image 16/21, Energy =   -93.4305754724 (+0.005 kcal/mol)
C        0.0206138384    0.0212505238    0.0000000000
N       -0.9234619216   -0.6481259329   -0.0000000000
H        0.9028423403    0.6268388179   -0.0000000000
3    
Image 17/21, Energy =   -93.4305832416 (+0.000 kcal/mol)
C        0.0217920010    0.0192452789   -0.0000000000
N       -0.8540160415   -0.7378629410    0.0000000000
H        0.8322247691    0.7185920419   -0.0000000000
3    
Image 18/21, Energy =   -93.4305610534 (+0.014 kcal/mol)
C        0.0196213000    0.0237903379   -0.0000000000
N       -0.9493982631   -0.6091053470    0.0000000000
H        0.9297764301    0.5852663321    0.0000000000
3    
Image 19/21, Energy =   -93.4305764277 (+0.004 kcal/mol)
C        0.0190604574    0.0223611866   -0.0000000000
N       -0.8730396528   -0.7149667591    0.0000000000
H        0.8539785734    0.6925672225    0.0000000000
3    
Image 20/21, Energy =   -93.4305823703 (+0.001 kcal/mol)
C        0.0194260556    0.0213642891    0.0000000000
N       -0.7589320377   -0.8347584640    0.0000000000
H        0.7395059821    0.8133941749    0.0000000000
