3    
Image 0/21, Energy =   -93.4092025797 (+13.417 kcal/mol)
C       -0.7519862184   -0.8272338399    0.0000000000
N        0.0394753354    0.0434721365    0.0000000000
H        0.7125108830    0.7837617034    0.0000000000
3    
Image 1/21, Energy =   -93.4085986862 (+13.796 kcal/mol)
C       -0.6304062125   -0.9167271295    0.0000000000
N       -0.0287617904    0.0933229776    0.0000000000
H        0.6591589670    0.8234626667   -0.0000000000
3    
Image 2/21, Energy =   -93.4051786068 (+15.942 kcal/mol)
C       -0.4468660332   -0.9885391929    0.0000000000
N       -0.1441376094    0.1524633722   -0.0000000000
H        0.5909148473    0.8361599463   -0.0000000000
3    
Image 3/21, Energy =   -93.3983150359 (+20.249 kcal/mol)
C       -0.3563541005   -0.9684942719   -0.0000000000
N       -0.2460487447    0.2143001949   -0.0000000000
H        0.6023014345    0.7542278898   -0.0000000000
3    
Image 4/21, Energy =   -93.3862550765 (+27.816 kcal/mol)
C       -0.2534333238   -0.9071680415   -0.0000000000
N       -0.3579132009    0.2858922817   -0.0000000000
H        0.6112904793    0.6212968144   -0.0000000000
3    
Image 5/21, Energy =   -93.3742594745 (+35.344 kcal/mol)
C       -0.1544771335   -0.8299474798   -0.0000000000
N       -0.4529542515    0.3371464123   -0.0000000000
H        0.6073951821    0.4928384681    0.0000000000
3    
Image 6/21, Energy =   -93.3638969802 (+41.846 kcal/mol)
C       -0.0845462318   -0.7465686055   -0.0000000000
N       -0.5436620537    0.3616339521   -0.0000000000
H        0.6281725254    0.3849820721    0.0000000000
3    
Image 7/21, Energy =   -93.3552118132 (+47.296 kcal/mol)
C       -0.0251288182   -0.6422665397   -0.0000000000
N       -0.6860076285    0.3494051150   -0.0000000000
H        0.7111081940    0.2929224976    0.0000000000
3    
Image 8/21, Energy =   -93.3573202005 (+45.973 kcal/mol)
C       -0.0097287497   -0.5954450757   -0.0000000000
N       -0.7461534196    0.3321712773   -0.0000000000
H        0.7558359202    0.2633423758    0.0000000000
3    
Image 9/21, Energy =   -93.3740350513 (+35.485 kcal/mol)
C        0.0066302943   -0.4877472791   -0.0000000000
N       -0.8679356684    0.2952463736   -0.0000000000
H        0.8612633891    0.1925706452    0.0000000000
3    
Image 10/21, Energy =   -93.4067822165 (+14.935 kcal/mol)
C        0.0157852969   -0.3121637678   -0.0000000000
N       -1.0132139345    0.2276888342   -0.0000000000
H        0.9973770895    0.0845727398    0.0000000000
3    
Image 11/21, Energy =   -93.4254651314 (+3.212 kcal/mol)
C        0.0208164109   -0.1478241094   -0.0000000000
N       -1.0941750380    0.1616644814    0.0000000000
H        1.0733187250   -0.0137426407    0.0000000000
3    
Image 12/21, Energy =   -93.4305751616 (+0.005 kcal/mol)
C        0.0288646243   -0.0007990265    0.0000000000
N       -1.1183369444   -0.1480050428   -0.0000000000
H        1.0894398009    0.1488153736    0.0000000000
3    
Image 13/21, Energy =   -93.4305466476 (+0.023 kcal/mol)
C        0.0297371768   -0.0056492002    0.0000000000
N       -1.1072235671   -0.2174015541    0.0000000000
H        1.0774474470    0.2230579314    0.0000000000
3    
Image 14/21, Energy =   -93.4305639831 (+0.012 kcal/mol)
C        0.0306344716    0.0024656430    0.0000000000
N       -1.0584628430   -0.3931799171    0.0000000000
H        1.0277837125    0.3906988240    0.0000000000
3    
Image 15/21, Energy =   -93.4305829853 (+0.000 kcal/mol)
C        0.0250975687    0.0146419849    0.0000000000
N       -0.9948859532   -0.5329167617   -0.0000000000
H        0.9697646571    0.5182428059   -0.0000000000
3    
Image 16/21, Energy =   -93.4305820319 (+0.001 kcal/mol)
C        0.0227528867    0.0184485057    0.0000000000
N       -0.9246873447   -0.6466128123   -0.0000000000
H        0.9019245867    0.6281271031   -0.0000000000
3    
Image 17/21, Energy =   -93.4305832416 (+0.000 kcal/mol)
C        0.0217920010    0.0192452789   -0.0000000000
N       -0.8540160415   -0.7378629410    0.0000000000
H        0.8322247691    0.7185920419   -0.0000000000
3    
Image 18/21, Energy =   -93.4305800867 (+0.002 kcal/mol)
C        0.0265802603    0.0127208521   -0.0000000000
N       -0.9508685508   -0.6077668751    0.0000000000
H        0.9242723539    0.5949959040    0.0000000000
3    
Image 19/21, Energy =   -93.4305806633 (+0.002 kcal/mol)
C        0.0204014712    0.0209106277   -0.0000000000
N       -0.8736782364   -0.7145298695    0.0000000000
H        0.8532738600    0.6935803639    0.0000000000
3    
Image 20/21, Energy =   -93.4305823703 (+0.001 kcal/mol)
C        0.0194260556    0.0213642891    0.0000000000
N       -0.7589320377   -0.8347584640    0.0000000000
H        0.7395059821    0.8133941749    0.0000000000
