3    
Image 0/21, Energy =   -93.4092025797 (+13.417 kcal/mol)
C       -0.7519862184   -0.8272338399    0.0000000000
N        0.0394753354    0.0434721365    0.0000000000
H        0.7125108830    0.7837617034    0.0000000000
3    
Image 1/21, Energy =   -93.4074818436 (+14.496 kcal/mol)
C       -0.6430603504   -0.8962158267   -0.0000000000
N       -0.0651207493    0.1301746222   -0.0000000000
H        0.7081610247    0.7660788459   -0.0000000000
3    
Image 2/21, Energy =   -93.4032370607 (+17.160 kcal/mol)
C       -0.4889312976   -0.9504838043    0.0000000000
N       -0.1651786679    0.1869031205   -0.0000000000
H        0.6540535875    0.7636358344   -0.0000000000
3    
Image 3/21, Energy =   -93.3976284955 (+20.679 kcal/mol)
C       -0.3827297133   -0.9526248983    0.0000000000
N       -0.2458581487    0.2276648717   -0.0000000000
H        0.6285102441    0.7249986867   -0.0000000000
3    
Image 4/21, Energy =   -93.3862550765 (+27.816 kcal/mol)
C       -0.2534333238   -0.9071680415   -0.0000000000
N       -0.3579132009    0.2858922817   -0.0000000000
H        0.6112904793    0.6212968144   -0.0000000000
3    
Image 5/21, Energy =   -93.3742482904 (+35.351 kcal/mol)
C       -0.1528541922   -0.8292895240   -0.0000000000
N       -0.4542245391    0.3346952297   -0.0000000000
H        0.6070562221    0.4946193649   -0.0000000000
3    
Image 6/21, Energy =   -93.3639471999 (+41.815 kcal/mol)
C       -0.0821993792   -0.7481391307   -0.0000000000
N       -0.5455405716    0.3586855930   -0.0000000000
H        0.6277131109    0.3894831903    0.0000000000
3    
Image 7/21, Energy =   -93.3552341608 (+47.282 kcal/mol)
C       -0.0252552765   -0.6379201939   -0.0000000000
N       -0.6918228009    0.3486897302   -0.0000000000
H        0.7170445023    0.2892773312    0.0000000000
3    
Image 8/21, Energy =   -93.3571567120 (+46.076 kcal/mol)
C       -0.0152769014   -0.5987282266   -0.0000000000
N       -0.7421527992    0.3386732509   -0.0000000000
H        0.7573780620    0.2601083140    0.0000000000
3    
Image 9/21, Energy =   -93.3737071929 (+35.690 kcal/mol)
C       -0.0008625461   -0.4897320635   -0.0000000000
N       -0.8622479163    0.3063962860   -0.0000000000
H        0.8630719611    0.1833932051    0.0000000000
3    
Image 10/21, Energy =   -93.4067115247 (+14.980 kcal/mol)
C        0.0112280253   -0.3129847568   -0.0000000000
N       -1.0100679841    0.2383613478   -0.0000000000
H        0.9988158002    0.0747078071    0.0000000000
3    
Image 11/21, Energy =   -93.4254091412 (+3.247 kcal/mol)
C        0.0185720050   -0.1490617927   -0.0000000000
N       -1.0921738780    0.1738097464    0.0000000000
H        1.0735782861   -0.0246648541   -0.0000000000
3    
Image 12/21, Energy =   -93.4305133269 (+0.044 kcal/mol)
C        0.0270889368    0.0207790867    0.0000000000
N       -1.1173778622   -0.1529881209   -0.0000000000
H        1.0902684000    0.1322131685    0.0000000000
3    
Image 13/21, Energy =   -93.4305100723 (+0.046 kcal/mol)
C        0.0256853445    0.0227509428    0.0000000000
N       -1.1032975661   -0.2314350522    0.0000000000
H        1.0775857620    0.2086814518    0.0000000000
3    
Image 14/21, Energy =   -93.4305544104 (+0.018 kcal/mol)
C        0.0235952188    0.0207057796    0.0000000000
N       -1.0533057072   -0.4042987363    0.0000000000
H        1.0296787874    0.3835730182    0.0000000000
3    
Image 15/21, Energy =   -93.4305723313 (+0.007 kcal/mol)
C        0.0224865761    0.0197979308    0.0000000000
N       -0.9931430014   -0.5358546467   -0.0000000000
H        0.9706376978    0.5160241101   -0.0000000000
3    
Image 16/21, Energy =   -93.4305798569 (+0.002 kcal/mol)
C        0.0221046153    0.0196435353    0.0000000000
N       -0.9241321787   -0.6471738045   -0.0000000000
H        0.9020194263    0.6274934021   -0.0000000000
3    
Image 17/21, Energy =   -93.4305832416 (+0.000 kcal/mol)
C        0.0217920010    0.0192452789   -0.0000000000
N       -0.8540160415   -0.7378629410    0.0000000000
H        0.8322247691    0.7185920419   -0.0000000000
3    
Image 18/21, Energy =   -93.4305735586 (+0.006 kcal/mol)
C        0.0209646973    0.0208867180   -0.0000000000
N       -0.9503799749   -0.6085314253    0.0000000000
H        0.9294119046    0.5875964676    0.0000000000
3    
Image 19/21, Energy =   -93.4305806633 (+0.002 kcal/mol)
C        0.0204014712    0.0209106277   -0.0000000000
N       -0.8736782364   -0.7145298695    0.0000000000
H        0.8532738600    0.6935803639    0.0000000000
3    
Image 20/21, Energy =   -93.4305823703 (+0.001 kcal/mol)
C        0.0194260556    0.0213642891    0.0000000000
N       -0.7589320377   -0.8347584640    0.0000000000
H        0.7395059821    0.8133941749    0.0000000000
