3    
Image 0/21, Energy =   -93.4092025797 (+13.416 kcal/mol)
C       -0.7519862184   -0.8272338399    0.0000000000
N        0.0394753354    0.0434721365    0.0000000000
H        0.7125108830    0.7837617034    0.0000000000
3    
Image 1/21, Energy =   -93.4065079465 (+15.107 kcal/mol)
C       -0.6775070786   -0.8585445091   -0.0000000000
N       -0.0787873943    0.1563261656    0.0000000000
H        0.7562966048    0.7022212730   -0.0000000000
3    
Image 2/21, Energy =   -93.4001739020 (+19.082 kcal/mol)
C       -0.5993638163   -0.8572327893    0.0000000000
N       -0.1689583780    0.2482248476   -0.0000000000
H        0.7683193967    0.6090114514   -0.0000000000
3    
Image 3/21, Energy =   -93.3912004926 (+24.713 kcal/mol)
C       -0.5086058518   -0.8387369972    0.0000000000
N       -0.2458367389    0.3288130218   -0.0000000000
H        0.7544383058    0.5099250939   -0.0000000000
3    
Image 4/21, Energy =   -93.3823514224 (+30.265 kcal/mol)
C       -0.4152661038   -0.8203345270    0.0000000000
N       -0.3060947979    0.3877527804   -0.0000000000
H        0.7213556750    0.4325844119   -0.0000000000
3    
Image 5/21, Energy =   -93.3753125244 (+34.682 kcal/mol)
C       -0.3228813984   -0.7929058649   -0.0000000000
N       -0.3810930809    0.4060030387   -0.0000000000
H        0.7039745035    0.3869048148   -0.0000000000
3    
Image 6/21, Energy =   -93.3607434689 (+43.825 kcal/mol)
C       -0.2057554859   -0.7918665162   -0.0000000000
N       -0.5193272757    0.3628936101    0.0000000000
H        0.7250828053    0.4289753170    0.0000000000
3    
Image 7/21, Energy =   -93.3490340365 (+51.172 kcal/mol)
C       -0.1473118623   -0.7652791965    0.0000000000
N       -0.6071831232    0.3398201611    0.0000000000
H        0.7544945411    0.4254619072    0.0000000000
3    
Image 8/21, Energy =   -93.3475431654 (+52.108 kcal/mol)
C       -0.0896795846   -0.7006830153    0.0000000000
N       -0.6799639415    0.3320795091    0.0000000000
H        0.7696387404    0.3686067185    0.0000000000
3    
Image 9/21, Energy =   -93.3566396977 (+46.400 kcal/mol)
C       -0.0354624275   -0.6023325981   -0.0000000000
N       -0.7602049347    0.3319807643   -0.0000000000
H        0.7956666605    0.2703622493   -0.0000000000
3    
Image 10/21, Energy =   -93.3729264234 (+36.180 kcal/mol)
C        0.0180277397   -0.4976659705    0.0000000000
N       -0.8754407906    0.2634435817    0.0000000000
H        0.8574175840    0.2342304336   -0.0000000000
3    
Image 11/21, Energy =   -93.3951721208 (+22.220 kcal/mol)
C        0.0687918988   -0.3759577698    0.0000000000
N       -0.9930052065    0.1001693810   -0.0000000000
H        0.9242250988    0.2757977439    0.0000000000
3    
Image 12/21, Energy =   -93.4124274001 (+11.392 kcal/mol)
C        0.0994468761   -0.2578645677   -0.0000000000
N       -1.0524144110   -0.1255273129    0.0000000000
H        0.9529630176    0.3834052312    0.0000000000
3    
Image 13/21, Energy =   -93.4211237249 (+5.935 kcal/mol)
C        0.1052417609   -0.1718435878   -0.0000000000
N       -1.0432785358   -0.3189882620    0.0000000000
H        0.9380276415    0.4908350920    0.0000000000
3    
Image 14/21, Energy =   -93.4267155115 (+2.426 kcal/mol)
C        0.0914395380   -0.0928643475    0.0000000000
N       -0.9921413141   -0.4986619765   -0.0000000000
H        0.9006943649    0.5915264798    0.0000000000
3    
Image 15/21, Energy =   -93.4289783848 (+1.007 kcal/mol)
C        0.0733573256   -0.0473623561    0.0000000000
N       -0.9277975899   -0.6270710636   -0.0000000000
H        0.8544415723    0.6744282762   -0.0000000000
3    
Image 16/21, Energy =   -93.4303262787 (+0.161 kcal/mol)
C        0.0435989329   -0.0044899865    0.0000000000
N       -0.8460382147   -0.7482609818   -0.0000000000
H        0.8024408031    0.7527471252   -0.0000000000
3    
Image 17/21, Energy =   -93.4286365170 (+1.221 kcal/mol)
C        0.0789283911   -0.0547074223   -0.0000000000
N       -0.9183933991   -0.6432854468    0.0000000000
H        0.8394673754    0.6979873650    0.0000000000
3    
Image 18/21, Energy =   -93.4255622280 (+3.150 kcal/mol)
C        0.1054066840   -0.1066690449    0.0000000000
N       -0.9687530374   -0.5472180974    0.0000000000
H        0.8633373410    0.6538852895    0.0000000000
3    
Image 19/21, Energy =   -93.4293378476 (+0.781 kcal/mol)
C        0.0686569501   -0.0382484671   -0.0000000000
N       -0.8922359993   -0.6835238033    0.0000000000
H        0.8235819458    0.7217661113   -0.0000000000
3    
Image 20/21, Energy =   -93.4305823703 (+0.000 kcal/mol)
C        0.0194260556    0.0213642891    0.0000000000
N       -0.7589320377   -0.8347584640    0.0000000000
H        0.7395059821    0.8133941749    0.0000000000
