3    
Image 0/21, Energy =   -93.4092025797 (+13.416 kcal/mol)
C       -0.7519862184   -0.8272338399    0.0000000000
N        0.0394753354    0.0434721365    0.0000000000
H        0.7125108830    0.7837617034    0.0000000000
3    
Image 1/21, Energy =   -93.4064971218 (+15.114 kcal/mol)
C       -0.6786951690   -0.8615031732   -0.0000000000
N       -0.0814589020    0.1566597174    0.0000000000
H        0.7601548141    0.7048446677    0.0000000000
3    
Image 2/21, Energy =   -93.4001867460 (+19.074 kcal/mol)
C       -0.5990507561   -0.8567854304   -0.0000000000
N       -0.1681565622    0.2477320345   -0.0000000000
H        0.7672063111    0.6090548377   -0.0000000000
3    
Image 3/21, Energy =   -93.3912212583 (+24.699 kcal/mol)
C       -0.5115600303   -0.8348308402    0.0000000000
N       -0.2445483094    0.3277912245   -0.0000000000
H        0.7561068371    0.5070401886   -0.0000000000
3    
Image 4/21, Energy =   -93.3818387631 (+30.587 kcal/mol)
C       -0.4190125964   -0.8064080143    0.0000000000
N       -0.3191871774    0.3761930756   -0.0000000000
H        0.7381988954    0.4302156959   -0.0000000000
3    
Image 5/21, Energy =   -93.3727482389 (+36.291 kcal/mol)
C       -0.3264651626   -0.7779851884    0.0000000000
N       -0.3938260454    0.4245949267    0.0000000000
H        0.7202909538    0.3533912032   -0.0000000000
3    
Image 6/21, Energy =   -93.3527880779 (+48.817 kcal/mol)
C       -0.2489579428   -0.7923610816   -0.0000000000
N       -0.5323878067    0.3796447250   -0.0000000000
H        0.7813454277    0.4127178658   -0.0000000000
3    
Image 7/21, Energy =   -93.3272886217 (+64.818 kcal/mol)
C       -0.1878265723   -0.7860599207   -0.0000000000
N       -0.6639019661    0.3196541915    0.0000000000
H        0.8517277724    0.4664074579    0.0000000000
3    
Image 8/21, Energy =   -93.3353736219 (+59.744 kcal/mol)
C       -0.1103474101   -0.7069083348   -0.0000000000
N       -0.7330350839    0.3161138499    0.0000000000
H        0.8433808691    0.3907968872   -0.0000000000
3    
Image 9/21, Energy =   -93.3564215040 (+46.537 kcal/mol)
C       -0.0423141098   -0.6054788699    0.0000000000
N       -0.7573355715    0.3431657794   -0.0000000000
H        0.7996496126    0.2623176442   -0.0000000000
3    
Image 10/21, Energy =   -93.3709276216 (+37.434 kcal/mol)
C        0.0349194365   -0.5027733775    0.0000000000
N       -0.8676719799    0.2491029683    0.0000000000
H        0.8327532788    0.2536740078    0.0000000000
3    
Image 11/21, Energy =   -93.3909698380 (+24.857 kcal/mol)
C        0.0873619678   -0.3912696263    0.0000000000
N       -0.9783857729    0.0838662135   -0.0000000000
H        0.8910265884    0.3074084071   -0.0000000000
3    
Image 12/21, Energy =   -93.4077159171 (+14.349 kcal/mol)
C        0.1187874791   -0.2812498172   -0.0000000000
N       -1.0328465200   -0.1305432776    0.0000000000
H        0.9140563301    0.4117975567   -0.0000000000
3    
Image 13/21, Energy =   -93.4176800282 (+8.096 kcal/mol)
C        0.1225011835   -0.1995175726   -0.0000000000
N       -1.0316119582   -0.3156578106    0.0000000000
H        0.9091083390    0.5151770968    0.0000000000
3    
Image 14/21, Energy =   -93.4245397769 (+3.792 kcal/mol)
C        0.1000642317   -0.1251971253    0.0000000000
N       -0.9992812913   -0.4962600888   -0.0000000000
H        0.8992131571    0.6214569888   -0.0000000000
3    
Image 15/21, Energy =   -93.4275538800 (+1.900 kcal/mol)
C        0.0809476847   -0.0717097818    0.0000000000
N       -0.9405386214   -0.6293317483   -0.0000000000
H        0.8595909373    0.7010399858   -0.0000000000
3    
Image 16/21, Energy =   -93.4280478686 (+1.590 kcal/mol)
C        0.0393735206   -0.0254460441    0.0000000000
N       -0.8574584911   -0.7635698095   -0.0000000000
H        0.8180852351    0.7890146233   -0.0000000000
3    
Image 17/21, Energy =   -93.4278396864 (+1.721 kcal/mol)
C        0.0888183122   -0.0621122011   -0.0000000000
N       -0.9088843250   -0.6403189471    0.0000000000
H        0.8200669715    0.7024290010   -0.0000000000
3    
Image 18/21, Energy =   -93.4226270353 (+4.992 kcal/mol)
C        0.1236668684   -0.1256044034    0.0000000000
N       -0.9525154640   -0.5268565025    0.0000000000
H        0.8288446420    0.6524590810    0.0000000000
3    
Image 19/21, Energy =   -93.4286725329 (+1.198 kcal/mol)
C        0.0773818285   -0.0456544767   -0.0000000000
N       -0.8841083568   -0.6780619701    0.0000000000
H        0.8067277798    0.7237139435   -0.0000000000
3    
Image 20/21, Energy =   -93.4305823703 (+0.000 kcal/mol)
C        0.0194260556    0.0213642891    0.0000000000
N       -0.7589320377   -0.8347584640    0.0000000000
H        0.7395059821    0.8133941749    0.0000000000
