3    
Image 0/21, Energy =   -93.4092025797 (+13.416 kcal/mol)
C       -0.7519862184   -0.8272338399    0.0000000000
N        0.0394753354    0.0434721365    0.0000000000
H        0.7125108830    0.7837617034    0.0000000000
3    
Image 1/21, Energy =   -93.4060186767 (+15.414 kcal/mol)
C       -0.6680078697   -0.8619936700   -0.0000000000
N       -0.0902309169    0.1658986476   -0.0000000000
H        0.7582408072    0.6961044200   -0.0000000000
3    
Image 2/21, Energy =   -93.3977843205 (+20.581 kcal/mol)
C       -0.5465942067   -0.8705119058   -0.0000000000
N       -0.2006598560    0.2660255771    0.0000000000
H        0.7472358448    0.6044965826    0.0000000000
3    
Image 3/21, Energy =   -93.3924236708 (+23.945 kcal/mol)
C       -0.4672345386   -0.8708892394    0.0000000000
N       -0.2563091384    0.3026108400    0.0000000000
H        0.7235281706    0.5682883713    0.0000000000
3    
Image 4/21, Energy =   -93.3831817943 (+29.744 kcal/mol)
C       -0.3336942647   -0.8536485320    0.0000000000
N       -0.3439599452    0.3419784081    0.0000000000
H        0.6776411834    0.5116811370   -0.0000000000
3    
Image 5/21, Energy =   -93.3733033550 (+35.943 kcal/mol)
C       -0.1968159513   -0.8112668539    0.0000000000
N       -0.4395400675    0.3662734223   -0.0000000000
H        0.6363494641    0.4450055962   -0.0000000000
3    
Image 6/21, Energy =   -93.3636215171 (+42.019 kcal/mol)
C       -0.1002799508   -0.7414112118   -0.0000000000
N       -0.5371338300    0.3738784477   -0.0000000000
H        0.6374080610    0.3675460954   -0.0000000000
3    
Image 7/21, Energy =   -93.3562158689 (+46.666 kcal/mol)
C       -0.0480862409   -0.6723975458   -0.0000000000
N       -0.6365825786    0.3614953175   -0.0000000000
H        0.6846611771    0.3109211463   -0.0000000000
3    
Image 8/21, Energy =   -93.3569394843 (+46.212 kcal/mol)
C       -0.0147304774   -0.6000890296   -0.0000000000
N       -0.7390573861    0.3364381777    0.0000000000
H        0.7537750894    0.2636775301    0.0000000000
3    
Image 9/21, Energy =   -93.3742222535 (+35.367 kcal/mol)
C        0.0050605266   -0.4862368921   -0.0000000000
N       -0.8681992523    0.2930589386    0.0000000000
H        0.8631479959    0.1932056929   -0.0000000000
3    
Image 10/21, Energy =   -93.4054596386 (+15.765 kcal/mol)
C        0.0240480050   -0.3191753292   -0.0000000000
N       -1.0143681170    0.1885568839   -0.0000000000
H        0.9903368459    0.1306520569    0.0000000000
3    
Image 11/21, Energy =   -93.4191790906 (+7.156 kcal/mol)
C        0.0423498537   -0.2162600242    0.0000000000
N       -1.0832269539    0.0807488805   -0.0000000000
H        1.0408838724    0.1355443022    0.0000000000
3    
Image 12/21, Energy =   -93.4279744275 (+1.637 kcal/mol)
C        0.0460791769   -0.0974732006    0.0000000000
N       -1.1059594132   -0.1530507617   -0.0000000000
H        1.0598631147    0.2505509000    0.0000000000
3    
Image 13/21, Energy =   -93.4287844415 (+1.128 kcal/mol)
C        0.0500856289   -0.0780206468    0.0000000000
N       -1.1030611472   -0.2062010958    0.0000000000
H        1.0529552134    0.2842427086   -0.0000000000
3    
Image 14/21, Energy =   -93.4300177454 (+0.354 kcal/mol)
C        0.0440375031   -0.0351447497   -0.0000000000
N       -1.0566934726   -0.3878676965    0.0000000000
H        1.0126329907    0.4230128859   -0.0000000000
3    
Image 15/21, Energy =   -93.4303801274 (+0.127 kcal/mol)
C        0.0397372381   -0.0120353999    0.0000000000
N       -0.9984872861   -0.5240328161   -0.0000000000
H        0.9587403966    0.5360558014   -0.0000000000
3    
Image 16/21, Energy =   -93.4305207939 (+0.039 kcal/mol)
C        0.0322011448    0.0033776446   -0.0000000000
N       -0.9280368620   -0.6409726796   -0.0000000000
H        0.8958381058    0.6375759868   -0.0000000000
3    
Image 17/21, Energy =   -93.4305601320 (+0.014 kcal/mol)
C        0.0267858275    0.0153431748   -0.0000000000
N       -0.8537837197   -0.7399834988    0.0000000000
H        0.8270027417    0.7246226254   -0.0000000000
3    
Image 18/21, Energy =   -93.4303475234 (+0.147 kcal/mol)
C        0.0421455707   -0.0105732852    0.0000000000
N       -0.9627272506   -0.5884740715    0.0000000000
H        0.9205719403    0.5990311987    0.0000000000
3    
Image 19/21, Energy =   -93.4304888903 (+0.059 kcal/mol)
C        0.0335381607    0.0085299729   -0.0000000000
N       -0.8803271036   -0.7089276947    0.0000000000
H        0.8467959772    0.7003763319    0.0000000000
3    
Image 20/21, Energy =   -93.4305823703 (+0.000 kcal/mol)
C        0.0194260556    0.0213642891    0.0000000000
N       -0.7589320377   -0.8347584640    0.0000000000
H        0.7395059821    0.8133941749    0.0000000000
