3    
Iteration 0 Energy -91.56878024
C        1.2781239506   -0.3104316082    0.0000000000
N        0.0474229778   -0.4821773685    0.0000000000
H        1.0092279750    0.7927107693    0.0000000000
3    
Iteration 1 Energy -91.56629084
C        1.2755582066   -0.3104538306    0.0000000000
N        0.0491982201   -0.4823769188    0.0000000000
H        0.9097155273    0.7957485186    0.0000000000
3    
Iteration 1 Energy -91.56485276
C        1.2738274151   -0.3102996746    0.0000000000
N        0.0505048323   -0.4822569725    0.0000000000
H        0.8067662419    0.7922448844    0.0000000000
3    
Iteration 1 Energy -91.56494933
C        1.2727788589   -0.3101403186    0.0000000000
N        0.0514772587   -0.4817556713    0.0000000000
H        0.7003315884    0.7833799676    0.0000000000
3    
Iteration 1 Energy -91.56549411
C        1.2677053774   -0.3106585619    0.0000000000
N        0.0569722605   -0.4787913975    0.0000000000
H        0.6844262973    0.7483634830    0.0000000000
3    
Iteration 1 Energy -91.56612282
C        1.2711200461   -0.3146667142    0.0000000000
N        0.0569853908   -0.4769646007    0.0000000000
H        0.6435561022    0.7707376853    0.0000000000
3    
Iteration 1 Energy -91.56737543
C        1.2728572451   -0.3157635031    0.0000000000
N        0.0579614401   -0.4731984791    0.0000000000
H        0.6092931659    0.7314723992    0.0000000000
3    
Iteration 1 Energy -91.56931092
C        1.2763704724   -0.3201884578    0.0000000000
N        0.0589186415   -0.4699010632    0.0000000000
H        0.5541297451    0.7383772677    0.0000000000
3    
Iteration 1 Energy -91.57188634
C        1.2793658409   -0.3234762228    0.0000000000
N        0.0602436143   -0.4653231966    0.0000000000
H        0.5000263443    0.7139386821    0.0000000000
3    
Iteration 1 Energy -91.57492870
C        1.2827888146   -0.3277087108    0.0000000000
N        0.0616443678   -0.4610638371    0.0000000000
H        0.4397747332    0.7051829974    0.0000000000
3    
Iteration 1 Energy -91.57825239
C        1.2860382125   -0.3318668730    0.0000000000
N        0.0632064874   -0.4565922109    0.0000000000
H        0.3793490260    0.6925920146    0.0000000000
3    
Iteration 1 Energy -91.58171608
C        1.2892397774   -0.3361796920    0.0000000000
N        0.0648800375   -0.4522222988    0.0000000000
H        0.3179448349    0.6832572771    0.0000000000
3    
Iteration 1 Energy -91.58521674
C        1.2923063331   -0.3405494561    0.0000000000
N        0.0666891638   -0.4478980581    0.0000000000
H        0.2562653847    0.6752357253    0.0000000000
3    
Iteration 1 Energy -91.58869135
C        1.2951939409   -0.3449515724    0.0000000000
N        0.0686544785   -0.4436186605    0.0000000000
H        0.1945478038    0.6682228100    0.0000000000
3    
Iteration 1 Energy -91.59210460
C        1.2978520914   -0.3493576852    0.0000000000
N        0.0708017385   -0.4393415151    0.0000000000
H        0.1330360171    0.6612888118    0.0000000000
3    
Iteration 1 Energy -91.59543821
C        1.3002374171   -0.3537518953    0.0000000000
N        0.0731547604   -0.4350257411    0.0000000000
H        0.0719158221    0.6536762021    0.0000000000
3    
Iteration 1 Energy -91.59868425
C        1.3023139075   -0.3581249823    0.0000000000
N        0.0757319716   -0.4306341901    0.0000000000
H        0.0113602336    0.6447588976    0.0000000000
3    
Iteration 1 Energy -91.60184161
C        1.3040560533   -0.3624718240    0.0000000000
N        0.0785429689   -0.4261376765    0.0000000000
H       -0.0484601465    0.6340703020    0.0000000000
3    
Iteration 1 Energy -91.60491366
C        1.3054519128   -0.3667892304    0.0000000000
N        0.0815853970   -0.4215139293    0.0000000000
H       -0.1073702980    0.6212629256    0.0000000000
3    
Iteration 1 Energy -91.60790638
C        1.3065050725   -0.3710750389    0.0000000000
N        0.0848433741   -0.4167468197    0.0000000000
H       -0.1651922601    0.6060868734    0.0000000000
3    
Iteration 1 Energy -91.61082634
C        1.3072344893   -0.3753277525    0.0000000000
N        0.0882877829   -0.4118252117    0.0000000000
H       -0.2217473025    0.5883695614    0.0000000000
3    
Iteration 1 Energy -91.61367895
C        1.3076720112   -0.3795464400    0.0000000000
N        0.0918785595   -0.4067421861    0.0000000000
H       -0.2768581806    0.5680037440    0.0000000000
3    
Iteration 1 Energy -91.61646695
C        1.3078582151   -0.3837306268    0.0000000000
N        0.0955682864   -0.4014944411    0.0000000000
H       -0.3303494766    0.5449378848    0.0000000000
3    
Iteration 1 Energy -91.61918957
C        1.3078375906   -0.3878800916    0.0000000000
N        0.0993062754   -0.3960820119    0.0000000000
H       -0.3820469475    0.5191698363    0.0000000000
3    
Iteration 1 Energy -91.62184208
C        1.3076541049   -0.3919945836    0.0000000000
N        0.1030423089   -0.3905081584    0.0000000000
H       -0.4317766600    0.4907419092    0.0000000000
3    
Iteration 1 Energy -91.62441597
C        1.3073479054   -0.3960735373    0.0000000000
N        0.1067295079   -0.3847793698    0.0000000000
H       -0.4793655606    0.4597375390    0.0000000000
3    
Iteration 1 Energy -91.62689942
C        1.3069533662   -0.4001158576    0.0000000000
N        0.1103261780   -0.3789053283    0.0000000000
H       -0.5246438485    0.4262782215    0.0000000000
3    
Iteration 1 Energy -91.62927807
C        1.3064983750   -0.4041198143    0.0000000000
N        0.1137967272   -0.3728987750    0.0000000000
H       -0.5674492377    0.3905203915    0.0000000000
3    
Iteration 1 Energy -91.63153589
C        1.3060045255   -0.4080830494    0.0000000000
N        0.1171118837   -0.3667752186    0.0000000000
H       -0.6076322669    0.3526514607    0.0000000000
3    
Iteration 1 Energy -91.63365615
C        1.3054878753   -0.4120026781    0.0000000000
N        0.1202484516   -0.3605525022    0.0000000000
H       -0.6450619369    0.3128850042    0.0000000000
3    
Iteration 1 Energy -91.63562231
C        1.3049599794   -0.4158754578    0.0000000000
N        0.1231887884   -0.3542502426    0.0000000000
H       -0.6796307768    0.2714549814    0.0000000000
3    
Iteration 1 Energy -91.63741896
C        1.3044289166   -0.4196979869    0.0000000000
N        0.1259202037   -0.3478891928    0.0000000000
H       -0.7112586986    0.2286092413    0.0000000000
3    
Iteration 1 Energy -91.63903251
C        1.3039002380   -0.4234669144    0.0000000000
N        0.1284343191   -0.3414905744    0.0000000000
H       -0.7398954236    0.1846027527    0.0000000000
3    
Iteration 1 Energy -91.64045186
C        1.3033777219   -0.4271791360    0.0000000000
N        0.1307264683   -0.3350754181    0.0000000000
H       -0.7655211284    0.1396907704    0.0000000000
3    
Iteration 1 Energy -91.64166883
C        1.3028639119   -0.4308319608    0.0000000000
N        0.1327951732   -0.3286639632    0.0000000000
H       -0.7881455810    0.0941224763    0.0000000000
3    
Iteration 1 Energy -91.64267841
C        1.3023605395   -0.4344232496    0.0000000000
N        0.1346416189   -0.3222751310    0.0000000000
H       -0.8078058838    0.0481353103    0.0000000000
3    
Iteration 1 Energy -91.64347884
C        1.3018688132   -0.4379515179    0.0000000000
N        0.1362691757   -0.3159261055    0.0000000000
H       -0.8245632665    0.0019503767    0.0000000000
3    
Iteration 1 Energy -91.64407150
C        1.3013893483   -0.4414159590    0.0000000000
N        0.1376831146   -0.3096320509    0.0000000000
H       -0.8384983110   -0.0442312192    0.0000000000
3    
Iteration 1 Energy -91.64446065
C        1.3009227008   -0.4448165128    0.0000000000
N        0.1388899611   -0.3034059384    0.0000000000
H       -0.8497083194   -0.0902299433    0.0000000000
3    
Iteration 1 Energy -91.64465301
C        1.3004682606   -0.4481536623    0.0000000000
N        0.1398975666   -0.2972585203    0.0000000000
H       -0.8582951231   -0.1358906259    0.0000000000
3    
Iteration 1 Energy -91.64465730
C        1.3000325848   -0.4514298885    0.0000000000
N        0.1407146729   -0.2911985077    0.0000000000
H       -0.8644583335   -0.1810626534    0.0000000000
