3    
Iteration 0 Energy -91.56878024
C        1.2781239506   -0.3104316082    0.0000000000
N        0.0474229778   -0.4821773685    0.0000000000
H        1.0092279750    0.7927107693    0.0000000000
3    
Iteration 1 Energy -91.57680030
C        1.2661228451   -0.3037057432    0.0000000000
N        0.0497425985   -0.4892258477    0.0000000000
H        1.1199944979    0.8105141384   -0.0000000000
3    
Iteration 1 Energy -91.58277608
C        1.2546627277   -0.3009695501    0.0000000000
N        0.0554697358   -0.4921991465    0.0000000000
H        1.1769638730    0.8192278899   -0.0000000000
3    
Iteration 1 Energy -91.58934905
C        1.2453208460   -0.2963504589    0.0000000000
N        0.0587967036   -0.4960401757    0.0000000000
H        1.2420460903    0.8175638435   -0.0000000000
3    
Iteration 1 Energy -91.59654501
C        1.2372504638   -0.2909516209    0.0000000000
N        0.0607855950   -0.5003380347    0.0000000000
H        1.3105716171    0.8129567894   -0.0000000000
3    
Iteration 1 Energy -91.60416945
C        1.2298368942   -0.2849900943    0.0000000000
N        0.0621243785   -0.5048496637    0.0000000000
H        1.3803047695    0.8046155316   -0.0000000000
3    
Iteration 1 Energy -91.61197344
C        1.2228282601   -0.2785812415    0.0000000000
N        0.0631259918   -0.5094530021    0.0000000000
H        1.4498982091    0.7922185248   -0.0000000000
3    
Iteration 1 Energy -91.61972124
C        1.2161501137   -0.2717964281    0.0000000000
N        0.0639268639   -0.5140787607    0.0000000000
H        1.5183432070    0.7756532827   -0.0000000000
3    
Iteration 1 Energy -91.62721716
C        1.2097939402   -0.2646939080    0.0000000000
N        0.0645925036   -0.5186822025    0.0000000000
H        1.5848309049    0.7549922675   -0.0000000000
3    
Iteration 1 Energy -91.63431286
C        1.2037667740   -0.2573294708    0.0000000000
N        0.0651633566   -0.5232311767    0.0000000000
H        1.6487154548    0.7304534784   -0.0000000000
3    
Iteration 1 Energy -91.64090456
C        1.1980720338   -0.2497590287    0.0000000000
N        0.0656724476   -0.5277007732    0.0000000000
H        1.7094972028    0.7023569858   -0.0000000000
3    
Iteration 1 Energy -91.64692598
C        1.1927050204   -0.2420380639    0.0000000000
N        0.0661503581   -0.5320709584    0.0000000000
H        1.7668071841    0.6710855061   -0.0000000000
3    
Iteration 1 Energy -91.65234033
C        1.1876543383   -0.2342201829    0.0000000000
N        0.0666251988   -0.5363255800    0.0000000000
H        1.8203905531    0.6370533390   -0.0000000000
3    
Iteration 1 Energy -91.65713328
C        1.1829048148   -0.2263557504    0.0000000000
N        0.0671212883   -0.5404519330    0.0000000000
H        1.8700901717    0.6006840591   -0.0000000000
3    
Iteration 1 Energy -91.66130718
C        1.1784400119   -0.2184909119    0.0000000000
N        0.0676580879   -0.5444404948    0.0000000000
H        1.9158314729    0.5623951904   -0.0000000000
3    
Iteration 1 Energy -91.66487655
C        1.1742437981   -0.2106670173    0.0000000000
N        0.0682498221   -0.5482846674    0.0000000000
H        1.9576090077    0.5225877537   -0.0000000000
3    
Iteration 1 Energy -91.66786470
C        1.1703011002   -0.2029203441    0.0000000000
N        0.0689056935   -0.5519804902    0.0000000000
H        1.9954745026    0.4816389807   -0.0000000000
3    
Iteration 1 Energy -91.67030111
C        1.1665981143   -0.1952820435    0.0000000000
N        0.0696304726   -0.5555263231    0.0000000000
H        2.0295261470    0.4398972652   -0.0000000000
3    
Iteration 1 Energy -91.67221931
C        1.1631222363   -0.1877782362    0.0000000000
N        0.0704252574   -0.5589225227    0.0000000000
H        2.0598988698    0.3976788050   -0.0000000000
3    
Iteration 1 Energy -91.67365535
C        1.1598618863   -0.1804302245    0.0000000000
N        0.0712882656   -0.5621711191    0.0000000000
H        2.0867554168    0.3552656402   -0.0000000000
3    
Iteration 1 Energy -91.67464644
C        1.1568063826   -0.1732547781    0.0000000000
N        0.0722155061   -0.5652755342    0.0000000000
H        2.1102785297    0.3129051405   -0.0000000000
3    
Iteration 1 Energy -91.67522997
C        1.1539458505   -0.1662644776    0.0000000000
N        0.0732013958   -0.5682403061    0.0000000000
H        2.1306634535    0.2708102745   -0.0000000000
3    
Iteration 1 Energy -91.67544267
C        1.1512709869   -0.1594681970    0.0000000000
N        0.0742393898   -0.5710707936    0.0000000000
H        2.1481119867    0.2291612452   -0.0000000000
