3    
Iteration 1 Energy -91.64320886
C        1.3024088421   -0.4375550569    0.0000000000
N        0.1349100540   -0.3165317333    0.0000000000
H       -0.8121116191    0.0056421396    0.0000000000
3    
Iteration 1 Energy -91.64235895
C        1.3016704780   -0.4359646020    0.0000000000
N        0.1372792147   -0.3201731974    0.0000000000
H       -0.8362355260    0.0372928676    0.0000000000
3    
Iteration 1 Energy -91.64219222
C        1.3029699321   -0.4332554393    0.0000000000
N        0.1329405595   -0.3241125061    0.0000000000
H       -0.7914291654    0.0597524100    0.0000000000
3    
Iteration 1 Energy -91.64118686
C        1.3024536883   -0.4310988265    0.0000000000
N        0.1345707021   -0.3288638798    0.0000000000
H       -0.8079303425    0.1000803819    0.0000000000
3    
Iteration 1 Energy -91.64050885
C        1.3036576223   -0.4277761511    0.0000000000
N        0.1300815125   -0.3336535312    0.0000000000
H       -0.7598939733    0.1270459592    0.0000000000
3    
Iteration 1 Energy -91.63915740
C        1.3034995156   -0.4246310672    0.0000000000
N        0.1303093545   -0.3401087425    0.0000000000
H       -0.7611761422    0.1792723177    0.0000000000
3    
Iteration 1 Energy -91.63760206
C        1.3045436482   -0.4202546020    0.0000000000
N        0.1256699227   -0.3465616719    0.0000000000
H       -0.7091478770    0.2167943532    0.0000000000
3    
Iteration 1 Energy -91.63532535
C        1.3049140308   -0.4154908332    0.0000000000
N        0.1233858131   -0.3552724637    0.0000000000
H       -0.6818211341    0.2810767780    0.0000000000
3    
Iteration 1 Energy -91.63267794
C        1.3058156374   -0.4101816014    0.0000000000
N        0.1185172870   -0.3632206338    0.0000000000
H       -0.6249110881    0.3282622798    0.0000000000
3    
Iteration 1 Energy -91.62959494
C        1.3063912767   -0.4047433299    0.0000000000
N        0.1145189170   -0.3721851065    0.0000000000
H       -0.5762086754    0.3880327744    0.0000000000
3    
Iteration 1 Energy -91.62629477
C        1.3071120897   -0.3991186553    0.0000000000
N        0.1092937202   -0.3802171745    0.0000000000
H       -0.5121880620    0.4326254433    0.0000000000
3    
Iteration 1 Energy -91.62273809
C        1.3075656646   -0.3934491878    0.0000000000
N        0.1044315530   -0.3886582429    0.0000000000
H       -0.4500278259    0.4823678620    0.0000000000
3    
Iteration 1 Energy -91.61904956
C        1.3079019636   -0.3876620127    0.0000000000
N        0.0990040782   -0.3962594805    0.0000000000
H       -0.3786146461    0.5190374109    0.0000000000
3    
Iteration 1 Energy -91.61519365
C        1.3078484907   -0.3818463751    0.0000000000
N        0.0938917055   -0.4040197817    0.0000000000
H       -0.3069357802    0.5575781655    0.0000000000
3    
Iteration 1 Energy -91.61123584
C        1.3073884411   -0.3759248620    0.0000000000
N        0.0886948345   -0.4110255749    0.0000000000
H       -0.2292381297    0.5843726826    0.0000000000
3    
Iteration 1 Energy -91.60713030
C        1.3063393477   -0.3699859758    0.0000000000
N        0.0839488220   -0.4180981125    0.0000000000
H       -0.1507868278    0.6118876724    0.0000000000
3    
Iteration 1 Energy -91.60290148
C        1.3046451649   -0.3639415165    0.0000000000
N        0.0794749573   -0.4244878451    0.0000000000
H       -0.0684306924    0.6286564170    0.0000000000
3    
Iteration 1 Energy -91.59850272
C        1.3022859076   -0.3579104186    0.0000000000
N        0.0755416476   -0.4309839016    0.0000000000
H        0.0143386173    0.6470618509    0.0000000000
3    
Iteration 1 Energy -91.59395313
C        1.2992430407   -0.3517587786    0.0000000000
N        0.0720200506   -0.4368561912    0.0000000000
H        0.0995323529    0.6553630700    0.0000000000
3    
Iteration 1 Energy -91.58924093
C        1.2957206792   -0.3457169462    0.0000000000
N        0.0689447233   -0.4430737714    0.0000000000
H        0.1842381632    0.6697708807    0.0000000000
3    
Iteration 1 Energy -91.58442213
C        1.2915951101   -0.3394735970    0.0000000000
N        0.0662645088   -0.4486489832    0.0000000000
H        0.2706410368    0.6728511288    0.0000000000
3    
Iteration 1 Energy -91.57961145
C        1.2875211856   -0.3338103543    0.0000000000
N        0.0637911726   -0.4551214176    0.0000000000
H        0.3535537458    0.6953115133    0.0000000000
3    
Iteration 1 Energy -91.57501084
C        1.2826937635   -0.3274612189    0.0000000000
N        0.0617825299   -0.4603767530    0.0000000000
H        0.4389874152    0.6926862455    0.0000000000
3    
Iteration 1 Energy -91.57108481
C        1.2791947855   -0.3235984703    0.0000000000
N        0.0598064531   -0.4669598185    0.0000000000
H        0.5081393750    0.7381378842    0.0000000000
3    
Iteration 1 Energy -91.56818331
C        1.2743201471   -0.3172272359    0.0000000000
N        0.0586281347   -0.4707907753    0.0000000000
H        0.5825974385    0.7154560819    0.0000000000
3    
Iteration 1 Energy -91.56628778
C        1.2731712945   -0.3164329089    0.0000000000
N        0.0567640788   -0.4759117741    0.0000000000
H        0.6221896612    0.7771527932    0.0000000000
3    
Iteration 1 Energy -91.56545719
C        1.2663607628   -0.3113397486    0.0000000000
N        0.0589991067   -0.4773325844    0.0000000000
H        0.6722830255    0.7362084972    0.0000000000
3    
Iteration 1 Energy -91.56485591
C        1.2745535522   -0.3102923619    0.0000000000
N        0.0502969779   -0.4816253633    0.0000000000
H        0.6955863216    0.7833808855    0.0000000000
3    
Iteration 1 Energy -91.56518198
C        1.2758608269   -0.3104232656    0.0000000000
N        0.0490886821   -0.4821949109    0.0000000000
H        0.8549238103    0.7928551321    0.0000000000
3    
Iteration 0 Energy -91.56878024
C        1.2781239506   -0.3104316082    0.0000000000
N        0.0474229778   -0.4821773685    0.0000000000
H        1.0092279750    0.7927107693    0.0000000000
3    
Iteration 1 Energy -91.58087513
C        1.2617581375   -0.3002569952    0.0000000000
N        0.0499035616   -0.4924652345    0.0000000000
H        1.1697657432    0.8144349575   -0.0000000000
3    
Iteration 1 Energy -91.58984481
C        1.2463317674   -0.2958242266    0.0000000000
N        0.0573611086   -0.4966513048    0.0000000000
H        1.2499494596    0.8197857553   -0.0000000000
3    
Iteration 1 Energy -91.59965714
C        1.2346484540   -0.2885810366    0.0000000000
N        0.0608857102   -0.5021562511    0.0000000000
H        1.3401848520    0.8099759155   -0.0000000000
3    
Iteration 1 Energy -91.60997156
C        1.2247265789   -0.2804222422    0.0000000000
N        0.0627362799   -0.5081511387    0.0000000000
H        1.4326941027    0.7960643655   -0.0000000000
3    
Iteration 1 Energy -91.62028090
C        1.2157088789   -0.2714582480    0.0000000000
N        0.0639185315   -0.5142762512    0.0000000000
H        1.5237165596    0.7743680070   -0.0000000000
3    
Iteration 1 Energy -91.63014842
C        1.2073226838   -0.2619090392    0.0000000000
N        0.0647924704   -0.5203916528    0.0000000000
H        1.6114985985    0.7455635385   -0.0000000000
3    
Iteration 1 Energy -91.63926740
C        1.1995149198   -0.2518792561    0.0000000000
N        0.0655022787   -0.5264256541    0.0000000000
H        1.6946690622    0.7099016123   -0.0000000000
3    
Iteration 1 Energy -91.64744431
C        1.1922564519   -0.2414837875    0.0000000000
N        0.0661409794   -0.5323304599    0.0000000000
H        1.7722824611    0.6680870270   -0.0000000000
3    
Iteration 1 Energy -91.65457265
C        1.1855162617   -0.2308316348    0.0000000000
N        0.0667834665   -0.5380699925    0.0000000000
H        1.8436676680    0.6209172610   -0.0000000000
3    
Iteration 1 Energy -91.66060785
C        1.1792577072   -0.2200280164    0.0000000000
N        0.0674915279   -0.5436163384    0.0000000000
H        1.9084026885    0.5692581661   -0.0000000000
3    
Iteration 1 Energy -91.66554861
C        1.1734457690   -0.2091693473    0.0000000000
N        0.0683111761   -0.5489491350    0.0000000000
H        1.9662654041    0.5139756212   -0.0000000000
3    
Iteration 1 Energy -91.66942359
C        1.1680498926   -0.1983416457    0.0000000000
N        0.0692722162   -0.5540550994    0.0000000000
H        2.0172057199    0.4559100051   -0.0000000000
3    
Iteration 1 Energy -91.67228208
C        1.1630450057   -0.1876189819    0.0000000000
N        0.0703897095   -0.5589274152    0.0000000000
H        2.0613130919    0.3958491854   -0.0000000000
3    
Iteration 1 Energy -91.67418709
C        1.1584104018   -0.1770632325    0.0000000000
N        0.0716666815   -0.5635649229    0.0000000000
H        2.0987922071    0.3345143440   -0.0000000000
3    
Iteration 1 Energy -91.67521025
C        1.1541293886   -0.1667237247    0.0000000000
N        0.0730967203   -0.5679713185    0.0000000000
H        2.1299310650    0.2725446047   -0.0000000000
3    
Iteration 1 Energy -91.67542759
C        1.1501869911   -0.1566384227    0.0000000000
N        0.0746663589   -0.5721544606    0.0000000000
H        2.1550952396    0.2105015354   -0.0000000000
3    
Iteration 1 Energy -91.67521877
C        1.1541031310   -0.1664894022    0.0000000000
N        0.0729201822   -0.5681320290    0.0000000000
H        2.1326971190    0.2719857576   -0.0000000000
3    
Iteration 1 Energy -91.67524314
C        1.1505706934   -0.1576590183    0.0000000000
N        0.0754398064   -0.5712944639    0.0000000000
H        2.1397753553    0.2107119729   -0.0000000000
