3    
Climbing Image - Chain 24 Image 4 Energy   -92.7236064005 (+65.638 kcal/mol) RMSGrad 0.025 eV/Ang
C       -0.1092497167   -0.6380872966    0.0000000000
N       -0.6387949884    0.4243207143    0.0000000000
H        0.7480447050    0.2137665823    0.0000000000
