6    
Climbing Image - Chain 52 Image 8 Energy  -168.9962095793 (+35.307 kcal/mol) RMSGrad 0.024 eV/Ang
C       -0.2521019216   -1.1071226275   -1.0124975309
C       -0.6147170212    0.0007661401   -0.5348183990
H       -1.3285274040    0.7771610090   -0.5801573270
H        0.5733092210   -1.7452323601   -0.7799517125
C        0.4535629690    0.9029222431    1.0129923891
N        1.1684741569    1.1715055918    1.8944325795
