3    
Iteration 0 Energy -92.72360563
C        1.4007098424   -0.4000191057    0.0015398648
N        0.2141796627   -0.4410039556    0.0013558703
H        0.9780462115    0.7323552964    0.0017565982
3    
Iteration 1 Energy -92.72494826
C        1.3951405455   -0.3925389302    0.0015408894
N        0.2116267568   -0.4484617927    0.0013536607
H        1.0798828444    0.7468590759    0.0017750934
3    
Iteration 1 Energy -92.72687674
C        1.3916536671   -0.3880639526    0.0015414797
N        0.2105029085   -0.4525371939    0.0013524931
H        1.1370480342    0.7501690661    0.0017842854
3    
Iteration 1 Energy -92.72979124
C        1.3880070204   -0.3834244777    0.0015420869
N        0.2092872858   -0.4568663371    0.0013512495
H        1.1973922549    0.7550449851    0.0017943309
3    
Iteration 1 Energy -92.73374883
C        1.3840119592   -0.3782907556    0.0015427646
N        0.2081517508   -0.4613581583    0.0013499777
H        1.2607751318    0.7562922437    0.0018039301
3    
Iteration 1 Energy -92.73873236
C        1.3796903596   -0.3727748593    0.0015434883
N        0.2071089266   -0.4660069881    0.0013486809
H        1.3267605893    0.7551674744    0.0018133260
3    
Iteration 1 Energy -92.74464098
C        1.3750805685   -0.3668542011    0.0015442698
N        0.2061709641   -0.4707743320    0.0013473702
H        1.3947228527    0.7508666106    0.0018222272
3    
Iteration 1 Energy -92.75129288
C        1.3702378325   -0.3605470963    0.0015451122
N        0.2053464534   -0.4756186922    0.0013460573
H        1.4638842565    0.7430312365    0.0018304346
3    
Iteration 1 Energy -92.75844755
C        1.3652364392   -0.3538836951    0.0015460191
N        0.2046346104   -0.4804962269    0.0013447527
H        1.5333705205    0.7314113790    0.0018377567
3    
Iteration 1 Energy -92.76584105
C        1.3601617250   -0.3469037896    0.0015469934
N        0.2040261271   -0.4853653591    0.0013434651
H        1.6022941539    0.7159034310    0.0018440397
3    
Iteration 1 Energy -92.77322304
C        1.3551001107   -0.3396523135    0.0015480360
N        0.2035061338   -0.4901903655    0.0013422016
H        1.6698320345    0.6965463891    0.0018491751
3    
Iteration 1 Energy -92.78038430
C        1.3501295456   -0.3321751728    0.0015491479
N        0.2030585445   -0.4949431881    0.0013409662
H        1.7352788832    0.6734973564    0.0018530927
3    
Iteration 1 Energy -92.78716886
C        1.3453126599   -0.3245165803    0.0015503275
N        0.2026703323   -0.4996033520    0.0013397621
H        1.7980694484    0.6469986325    0.0018557692
3    
Iteration 1 Energy -92.79347284
C        1.3406937630   -0.3167180704    0.0015515702
N        0.2023343280   -0.5041566211    0.0013385921
H        1.8577753806    0.6173472990    0.0018572201
3    
Iteration 1 Energy -92.79923551
C        1.3362992334   -0.3088185380    0.0015528695
N        0.2020501340   -0.5085932199    0.0013374589
H        1.9140878891    0.5848709691    0.0018574852
3    
Iteration 1 Energy -92.80442823
C        1.3321402859   -0.3008547217    0.0015542199
N        0.2018231891   -0.5129063093    0.0013363642
H        1.9667977673    0.5499123718    0.0018566061
3    
Iteration 1 Energy -92.80904468
C        1.3282167732   -0.2928614454    0.0015556127
N        0.2016628716   -0.5170909308    0.0013353107
H        2.0157764471    0.5128175432    0.0018546506
3    
Iteration 1 Energy -92.81309335
C        1.3245211589   -0.2848715778    0.0015570378
N        0.2015801658   -0.5211434636    0.0013343010
H        2.0609610941    0.4739278250    0.0018517002
3    
Iteration 1 Energy -92.81659236
C        1.3210418210   -0.2769157293    0.0015584859
N        0.2015857206   -0.5250613888    0.0013333375
H        2.1023422096    0.4335729519    0.0018478328
3    
Iteration 1 Energy -92.81956606
C        1.3177654377   -0.2690219368    0.0015599468
N        0.2016884768   -0.5288432204    0.0013324225
H        2.1399542910    0.3920663499    0.0018431408
3    
Iteration 1 Energy -92.82204275
C        1.3146787152   -0.2612152391    0.0015614157
N        0.2018948564   -0.5324885204    0.0013315557
H        2.1738665021    0.3497002835    0.0018376843
3    
Iteration 1 Energy -92.82405313
C        1.3117691733   -0.2535175193    0.0015628846
N        0.2022086606   -0.5359978277    0.0013307376
H        2.2041747276    0.3067429936    0.0018315484
3    
Iteration 1 Energy -92.82562908
C        1.3090257529   -0.2459474790    0.0015643427
N        0.2026310395   -0.5393726069    0.0013299701
H        2.2309947626    0.2634376699    0.0018248393
3    
Iteration 1 Energy -92.82680262
C        1.3064387788   -0.2385208907    0.0015657932
N        0.2031609777   -0.5426150526    0.0013292491
H        2.2544560034    0.2200027488    0.0018175763
3    
Iteration 1 Energy -92.82760512
C        1.3039999573   -0.2312509983    0.0015672235
N        0.2037953412   -0.5457280141    0.0013285765
H        2.2747008213    0.1766356324    0.0018098796
3    
Iteration 1 Energy -92.82806671
C        1.3017017526   -0.2241489146    0.0015686395
N        0.2045298458   -0.5487146667    0.0013279471
H        2.2918785492    0.1335128599    0.0018017535
3    
Iteration 1 Energy -92.82821583
C        1.2995382104   -0.2172237557    0.0015700311
N        0.2053566044   -0.5515792461    0.0013273614
H        2.3061697273    0.0908019142    0.0017933092
