3    
Iteration 0 Energy -92.72399292
C        1.2781239518   -0.3104316106    0.0000000000
N        0.0474229770   -0.4821773670    0.0000000000
H        1.0092279762    0.7927107717    0.0000000000
3    
Iteration 1 Energy -92.72471711
C        1.2787304885   -0.3162953821   -0.0000000206
N        0.0551345143   -0.4728991198    0.0000000085
H        1.0009099022    0.7892962959    0.0000000121
3    
Iteration 2 Energy -92.72536382
C        1.2796380995   -0.3248024552    0.0000001587
N        0.0660523780   -0.4597798154    0.0000000648
H        0.9890968934    0.7846808843    0.0000002330
3    
Iteration 3 Energy -92.72549226
C        1.2814157817   -0.3376719732    0.0000004999
N        0.0812816375   -0.4411795817    0.0000001535
H        0.9721126920    0.7789441684    0.0000006243
3    
Iteration 4 Energy -92.72443063
C        1.2879084424   -0.3583751127    0.0000016036
N        0.0996244285   -0.4152971984    0.0000004709
H        0.9473528217    0.7737433002    0.0000018242
3    
Iteration 5 Energy -92.72358335
C        1.3139496115   -0.3806228075    0.0001679623
N        0.1235201753   -0.3910569800    0.0001481597
H        0.9245936566    0.7603675638    0.0001916670
3    
Iteration 6 Energy -92.71873344
C        3.5207505875   -0.8204939885    0.0366479059
N        2.6999175808   -1.6151909114    0.0310369573
H        2.4234998074   -0.2485282782    0.0396054456
3    
Iteration 7 Energy -92.72240010
C        2.4593751768   -0.6117195892    0.0181307824
N        1.3811744255   -1.0514501105    0.0156972427
H        1.6627387350    0.3162677938    0.0202862379
3    
Iteration 8 Energy -92.72341011
C        1.7655897857   -0.4755794751    0.0071027691
N        0.6014672902   -0.6549793569    0.0062594516
H        1.2095124415    0.6038230728    0.0080899843
3    
Iteration 9 Energy -92.72359242
C        1.3997898294   -0.4010068285    0.0015271596
N        0.2157202320   -0.4404534908    0.0013562362
H        0.9776546234    0.7326731820    0.0017460694
3    
Iteration 10 Energy -92.72360459
C        1.4009936726   -0.3998138719    0.0015458237
N        0.2137559615   -0.4411849480    0.0013809760
H        0.9783472536    0.7324491244    0.0017656715
3    
Iteration 11 Energy -92.72360563
C        1.4007217164   -0.4000178200    0.0015431993
N        0.2141830586   -0.4409894778    0.0013640590
H        0.9780806393    0.7323812322    0.0017607246
3    
Iteration 12 Energy -92.72360563
C        1.4007098424   -0.4000191057    0.0015398648
N        0.2141796627   -0.4410039556    0.0013558703
H        0.9780462115    0.7323552964    0.0017565982
