3    
Image 0/11, Energy =   -92.8141878334 (+8.384 kcal/mol)
C       -0.7519862184   -0.8272338399    0.0000000000
N        0.0394753354    0.0434721365    0.0000000000
H        0.7125108830    0.7837617034    0.0000000000
3    
Image 1/11, Energy =   -92.8039492119 (+14.808 kcal/mol)
C       -0.6232522862   -0.8497153169    0.0000000000
N       -0.1302354807    0.2138623973    0.0000000000
H        0.7534877669    0.6358529196    0.0000000000
3    
Image 2/11, Energy =   -92.7723614893 (+34.630 kcal/mol)
C       -0.4546325718   -0.8104930220    0.0000000000
N       -0.2808216557    0.3664951924    0.0000000000
H        0.7354542276    0.4439978296    0.0000000000
3    
Image 3/11, Energy =   -92.7429055321 (+53.114 kcal/mol)
C       -0.2982213135   -0.7413723190    0.0000000000
N       -0.4100145910    0.4483788149    0.0000000000
H        0.7082359045    0.2929935041    0.0000000000
3    
Image 4/11, Energy =   -92.7236064005 (+65.224 kcal/mol)
C       -0.1092497167   -0.6380872966    0.0000000000
N       -0.6387949884    0.4243207143    0.0000000000
H        0.7480447050    0.2137665823    0.0000000000
3    
Image 5/11, Energy =   -92.7255226943 (+64.022 kcal/mol)
C       -0.0117138539   -0.5346158305    0.0000000000
N       -0.7874464489    0.2691298815    0.0000000000
H        0.7991603027    0.2654859490    0.0000000000
3    
Image 6/11, Energy =   -92.7618714423 (+41.213 kcal/mol)
C        0.0858220090   -0.4311443644    0.0000000000
N       -0.9360979094    0.1139390487    0.0000000000
H        0.8502759004    0.3172053157    0.0000000000
3    
Image 7/11, Energy =   -92.7577237612 (+43.815 kcal/mol)
C        0.0998600759   -0.2704689482    0.0000000000
N       -0.9416378178   -0.2081755192    0.0000000000
H        0.8417777420    0.4786444673    0.0000000000
3    
Image 8/11, Energy =   -92.8200279348 (+4.719 kcal/mol)
C        0.1138981428   -0.1097935319    0.0000000000
N       -0.9471777263   -0.5302900870    0.0000000000
H        0.8332795835    0.6400836190    0.0000000000
3    
Image 9/11, Energy =   -92.8238754549 (+2.305 kcal/mol)
C        0.0652183576   -0.0400530858    0.0000000000
N       -0.8439426443   -0.6850125893    0.0000000000
H        0.7787242867    0.7250656751    0.0000000000
3    
Image 10/11, Energy =   -92.8275480253 (+0.000 kcal/mol)
C        0.0194260556    0.0213642891    0.0000000000
N       -0.7589320377   -0.8347584640    0.0000000000
H        0.7395059821    0.8133941749    0.0000000000
