3    
Image 0/11, Energy =   -92.8148741520 (+8.372 kcal/mol)
C       -0.7423976108   -0.8166733369   -0.0000000000
N        0.0415634250    0.0457411997    0.0000000000
H        0.7008341911    0.7709321372    0.0000000000
3    
Image 1/11, Energy =   -92.8032003851 (+15.697 kcal/mol)
C       -0.5378530882   -0.8998758284    0.0000000000
N       -0.1529541190    0.2044919997    0.0000000000
H        0.6908072092    0.6953838301    0.0000000000
3    
Image 2/11, Energy =   -92.7740086568 (+34.016 kcal/mol)
C       -0.3509722509   -0.8675062126    0.0000000000
N       -0.3202279623    0.3208071235    0.0000000000
H        0.6712002141    0.5466990906    0.0000000000
3    
Image 3/11, Energy =   -92.7411792797 (+54.616 kcal/mol)
C       -0.1911236316   -0.7684515229   -0.0000000000
N       -0.4781201457    0.3890737933    0.0000000000
H        0.6692437777    0.3793777313    0.0000000000
3    
Image 4/11, Energy =   -92.7236051797 (+65.644 kcal/mol)
C       -0.0846033423   -0.6430756691   -0.0000000000
N       -0.6535940886    0.3989811349    0.0000000000
H        0.7381974312    0.2440945360    0.0000000000
3    
Image 5/11, Energy =   -92.7453254556 (+52.014 kcal/mol)
C       -0.0324542626   -0.5001465479    0.0000000000
N       -0.8234989831    0.3563452108    0.0000000000
H        0.8559532461    0.1438013389    0.0000000000
3    
Image 6/11, Energy =   -92.7885777645 (+24.873 kcal/mol)
C        0.0031998478   -0.3371935748    0.0000000000
N       -0.9699782104    0.2696011570    0.0000000000
H        0.9667783629    0.0675924196    0.0000000000
3    
Image 7/11, Energy =   -92.8199589887 (+5.181 kcal/mol)
C        0.0341188956   -0.1539795536    0.0000000000
N       -1.0811940452    0.0772011743    0.0000000000
H        1.0470751496    0.0767783808    0.0000000000
3    
Image 8/11, Energy =   -92.8275668070 (+0.407 kcal/mol)
C        0.0411441922   -0.0311998409   -0.0000000000
N       -1.0754367015   -0.2600843785    0.0000000000
H        1.0342925088    0.2912842202    0.0000000000
3    
Image 9/11, Energy =   -92.8281103325 (+0.066 kcal/mol)
C        0.0322282431    0.0085595824   -0.0000000000
N       -0.9522048666   -0.5681264634    0.0000000000
H        0.9199766228    0.5595668810    0.0000000000
3    
Image 10/11, Energy =   -92.8282158336 (+0.000 kcal/mol)
C        0.0205086862    0.0225589462    0.0000000000
N       -0.7491295810   -0.8240317894   -0.0000000000
H        0.7286208949    0.8014728432    0.0000000000
