3    
Image 0/11, Energy =   -92.8148741520 (+8.372 kcal/mol)
C       -0.7423976108   -0.8166733316    0.0000000000
N        0.0415634250    0.0457411997   -0.0000000000
H        0.7008341858    0.7709321319   -0.0000000000
3    
Image 1/11, Energy =   -92.8043931846 (+14.949 kcal/mol)
C       -0.5373351391   -0.9082222009    0.0000000000
N       -0.1471976581    0.1965013264    0.0000000000
H        0.6845327972    0.7117208745   -0.0000000000
3    
Image 2/11, Energy =   -92.7764101859 (+32.509 kcal/mol)
C       -0.3793890822   -0.8665816960    0.0000000000
N       -0.3031049540    0.3206247731    0.0000000000
H        0.6824940414    0.5459569281   -0.0000000000
3    
Image 3/11, Energy =   -92.7434262846 (+53.206 kcal/mol)
C       -0.2255266488   -0.7693111087    0.0000000000
N       -0.4502195048    0.4036933501    0.0000000000
H        0.6757461536    0.3656177586   -0.0000000000
3    
Image 4/11, Energy =   -92.7236053086 (+65.644 kcal/mol)
C       -0.1079946492   -0.6389482869    0.0000000000
N       -0.6380970207    0.4236373724    0.0000000000
H        0.7460916699    0.2153109145   -0.0000000000
3    
Image 5/11, Energy =   -92.7517309884 (+47.995 kcal/mol)
C       -0.0475460697   -0.4742973060    0.0000000000
N       -0.8313915702    0.3848469366   -0.0000000000
H        0.8789376399    0.0894503694   -0.0000000000
3    
Image 6/11, Energy =   -92.8019139525 (+16.505 kcal/mol)
C       -0.0061506438   -0.2763663757   -0.0000000000
N       -0.9954521157    0.2981617573   -0.0000000000
H        1.0016027595   -0.0217953866    0.0000000000
3    
Image 7/11, Energy =   -92.8277570385 (+0.288 kcal/mol)
C        0.0326555173   -0.0353505634   -0.0000000000
N       -1.1094587275   -0.0264672564    0.0000000000
H        1.0768032057    0.0618178188    0.0000000000
3    
Image 8/11, Energy =   -92.8282100178 (+0.004 kcal/mol)
C        0.0296084501    0.0090126568    0.0000000000
N       -1.0361939316   -0.4051224652   -0.0000000000
H        1.0065854768    0.3961098040    0.0000000000
3    
Image 9/11, Energy =   -92.8282144683 (+0.001 kcal/mol)
C        0.0249997533    0.0179521998   -0.0000000000
N       -0.9005196291   -0.6541943474   -0.0000000000
H        0.8755198801    0.6362421519   -0.0000000000
3    
Image 10/11, Energy =   -92.8282158335 (+0.000 kcal/mol)
C        0.0205086862    0.0225589462   -0.0000000000
N       -0.7491295810   -0.8240317894    0.0000000000
H        0.7286208949    0.8014728432   -0.0000000000
