3    
Image 0/11, Energy =   -92.8141878334 (+8.801 kcal/mol)
C       -0.7519862184   -0.8272338399    0.0000000000
N        0.0394753354    0.0434721365    0.0000000000
H        0.7125108830    0.7837617034    0.0000000000
3    
Image 1/11, Energy =   -92.8053666893 (+14.336 kcal/mol)
C       -0.5780581208   -0.8882623770   -0.0000000000
N       -0.1324092369    0.1948879103    0.0000000000
H        0.7104673577    0.6933744667    0.0000000000
3    
Image 2/11, Energy =   -92.7750675369 (+33.349 kcal/mol)
C       -0.3745483785   -0.8631163355   -0.0000000000
N       -0.3081673552    0.3257584771   -0.0000000000
H        0.6827157336    0.5373578584   -0.0000000000
3    
Image 3/11, Energy =   -92.7467386166 (+51.126 kcal/mol)
C       -0.2417269895   -0.7817468621   -0.0000000000
N       -0.4328340100    0.3983178827   -0.0000000000
H        0.6745609995    0.3834289795   -0.0000000000
3    
Image 4/11, Energy =   -92.7236064005 (+65.641 kcal/mol)
C       -0.1092497167   -0.6380872966    0.0000000000
N       -0.6387949884    0.4243207143    0.0000000000
H        0.7480447050    0.2137665823    0.0000000000
3    
Image 5/11, Energy =   -92.7590881022 (+43.376 kcal/mol)
C       -0.0445701144   -0.4477192344   -0.0000000000
N       -0.8541095450    0.3833846484    0.0000000000
H        0.8986796593    0.0643345861   -0.0000000000
3    
Image 6/11, Energy =   -92.8070212918 (+13.298 kcal/mol)
C       -0.0103706487   -0.2494683901    0.0000000000
N       -1.0020723429    0.3224564240    0.0000000000
H        1.0124429916   -0.0729880339   -0.0000000000
3    
Image 7/11, Energy =   -92.8276160850 (+0.374 kcal/mol)
C        0.0295954353   -0.0434007769    0.0000000000
N       -1.1107137586    0.0351573364    0.0000000000
H        1.0811183233    0.0082434405   -0.0000000000
3    
Image 8/11, Energy =   -92.8282010887 (+0.007 kcal/mol)
C        0.0283225374    0.0142200845    0.0000000000
N       -1.0658816081   -0.3245002717   -0.0000000000
H        1.0375590707    0.3102801872    0.0000000000
3    
Image 9/11, Energy =   -92.8282126207 (+0.000 kcal/mol)
C        0.0252573801    0.0167194075   -0.0000000000
N       -0.9793218816   -0.5298193045   -0.0000000000
H        0.9540645015    0.5130998970    0.0000000000
3    
Image 10/11, Energy =   -92.8275480253 (+0.417 kcal/mol)
C        0.0194260556    0.0213642891    0.0000000000
N       -0.7589320377   -0.8347584640    0.0000000000
H        0.7395059821    0.8133941749    0.0000000000
