3    
Image 0/11, Energy =   -92.8148741520 (+8.372 kcal/mol)
C       -0.7423976055   -0.8166733316   -0.0000000000
N        0.0415634250    0.0457411997    0.0000000000
H        0.7008341858    0.7709321319    0.0000000000
3    
Image 1/11, Energy =   -92.8035833530 (+15.457 kcal/mol)
C       -0.5474031792   -0.8973212403    0.0000000000
N       -0.1495425846    0.2040202577    0.0000000000
H        0.6969457654    0.6933009797    0.0000000000
3    
Image 2/11, Energy =   -92.7743911707 (+33.775 kcal/mol)
C       -0.3714493764   -0.8610876887    0.0000000000
N       -0.3112650831    0.3272879720    0.0000000000
H        0.6827144599    0.5337997129    0.0000000000
3    
Image 3/11, Energy =   -92.7422179178 (+53.965 kcal/mol)
C       -0.2158086727   -0.7662436311    0.0000000000
N       -0.4600977176    0.4019362270    0.0000000000
H        0.6759063904    0.3643074000    0.0000000000
3    
Image 4/11, Energy =   -92.7236067975 (+65.643 kcal/mol)
C       -0.1038564901   -0.6407811219    0.0000000000
N       -0.6401078125    0.4186157831    0.0000000000
H        0.7439643027    0.2221653347    0.0000000000
3    
Image 5/11, Energy =   -92.7474054959 (+50.709 kcal/mol)
C       -0.0482941054   -0.4907452945    0.0000000000
N       -0.8180349305    0.3841636426    0.0000000000
H        0.8663290360    0.1065816478    0.0000000000
3    
Image 6/11, Energy =   -92.7922871960 (+22.546 kcal/mol)
C       -0.0118403337   -0.3214243768    0.0000000000
N       -0.9662016733    0.3141373192    0.0000000000
H        0.9780420071    0.0072870537    0.0000000000
3    
Image 7/11, Energy =   -92.8225736897 (+3.540 kcal/mol)
C        0.0237161376   -0.1305309569    0.0000000000
N       -1.0824154997    0.1477597867    0.0000000000
H        1.0586993621   -0.0172288334    0.0000000000
3    
Image 8/11, Energy =   -92.8280535446 (+0.102 kcal/mol)
C        0.0349312065   -0.0128300480    0.0000000000
N       -1.0870860843   -0.2250390495    0.0000000000
H        1.0521548779    0.2378690950    0.0000000000
3    
Image 9/11, Energy =   -92.8281889674 (+0.017 kcal/mol)
C        0.0284515043    0.0136803266    0.0000000000
N       -0.9628645861   -0.5542090722    0.0000000000
H        0.9344130819    0.5405287442    0.0000000000
3    
Image 10/11, Energy =   -92.8282158335 (+0.000 kcal/mol)
C        0.0205086862    0.0225589462    0.0000000000
N       -0.7491295810   -0.8240317894   -0.0000000000
H        0.7286208949    0.8014728432    0.0000000000
