3    
Image 0/11, Energy =   -92.8141878334 (+8.751 kcal/mol)
C       -0.7519862184   -0.8272338399    0.0000000000
N        0.0394753354    0.0434721365    0.0000000000
H        0.7125108830    0.7837617034    0.0000000000
3    
Image 1/11, Energy =   -92.8040656209 (+15.103 kcal/mol)
C       -0.6140213857   -0.8570380642   -0.0000000000
N       -0.1323232294    0.2112859558    0.0000000000
H        0.7463446152    0.6457521085    0.0000000000
3    
Image 2/11, Energy =   -92.7739889203 (+33.976 kcal/mol)
C       -0.4091064957   -0.8427117856   -0.0000000000
N       -0.2977208234    0.3432326155    0.0000000000
H        0.7068273190    0.4994791701    0.0000000000
3    
Image 3/11, Energy =   -92.7465473448 (+51.196 kcal/mol)
C       -0.2454813370   -0.7795666294    0.0000000000
N       -0.4320683006    0.4002499849    0.0000000000
H        0.6775496376    0.3793166445    0.0000000000
3    
Image 4/11, Energy =   -92.7236064005 (+65.592 kcal/mol)
C       -0.1092497167   -0.6380872966    0.0000000000
N       -0.6387949884    0.4243207143    0.0000000000
H        0.7480447050    0.2137665823    0.0000000000
3    
Image 5/11, Energy =   -92.7565503366 (+44.919 kcal/mol)
C       -0.0478265153   -0.4593821781    0.0000000000
N       -0.8462532464    0.3940131304    0.0000000000
H        0.8940797616    0.0653690477   -0.0000000000
3    
Image 6/11, Energy =   -92.8018951139 (+16.465 kcal/mol)
C       -0.0004369783   -0.2806024480    0.0000000000
N       -1.0066673687    0.2858975526   -0.0000000000
H        1.0071043470   -0.0052951046   -0.0000000000
3    
Image 7/11, Energy =   -92.8279632926 (+0.107 kcal/mol)
C        0.0265183177   -0.0010811461    0.0000000000
N       -1.0748671650   -0.3140683617    0.0000000000
H        1.0483488473    0.3151495078   -0.0000000000
3    
Image 8/11, Energy =   -92.8276117703 (+0.328 kcal/mol)
C        0.0166323401    0.0142489538    0.0000000000
N       -0.9741475245   -0.5331303410   -0.0000000000
H        0.9575151844    0.5188813873    0.0000000000
3    
Image 9/11, Energy =   -92.8281337017 (+0.000 kcal/mol)
C        0.0152129882    0.0253424398   -0.0000000000
N       -0.8367330437   -0.7320611213    0.0000000000
H        0.8215200555    0.7067186815   -0.0000000000
3    
Image 10/11, Energy =   -92.8275480253 (+0.368 kcal/mol)
C        0.0194260556    0.0213642891    0.0000000000
N       -0.7589320377   -0.8347584640    0.0000000000
H        0.7395059821    0.8133941749    0.0000000000
