3    
Image 0/11, Energy =   -92.8148741520 (+8.372 kcal/mol)
C       -0.7423976055   -0.8166733316   -0.0000000000
N        0.0415634250    0.0457411997    0.0000000000
H        0.7008341858    0.7709321319    0.0000000000
3    
Image 1/11, Energy =   -92.8035833530 (+15.457 kcal/mol)
C       -0.5474031792   -0.8973212403    0.0000000000
N       -0.1495425846    0.2040202577    0.0000000000
H        0.6969457654    0.6933009797    0.0000000000
3    
Image 2/11, Energy =   -92.7743911707 (+33.775 kcal/mol)
C       -0.3714493764   -0.8610876887    0.0000000000
N       -0.3112650831    0.3272879720    0.0000000000
H        0.6827144599    0.5337997129    0.0000000000
3    
Image 3/11, Energy =   -92.7422179178 (+53.965 kcal/mol)
C       -0.2158086727   -0.7662436311    0.0000000000
N       -0.4600977176    0.4019362270    0.0000000000
H        0.6759063904    0.3643074000    0.0000000000
3    
Image 4/11, Energy =   -92.7236067975 (+65.643 kcal/mol)
C       -0.1038564901   -0.6407811219    0.0000000000
N       -0.6401078125    0.4186157831    0.0000000000
H        0.7439643027    0.2221653347    0.0000000000
3    
Image 5/11, Energy =   -92.7478898313 (+50.405 kcal/mol)
C       -0.0475577554   -0.4889241070    0.0000000000
N       -0.8200961405    0.3830745714    0.0000000000
H        0.8676538960    0.1058495316    0.0000000000
3    
Image 6/11, Energy =   -92.7933715315 (+21.865 kcal/mol)
C       -0.0105297424   -0.3166625800    0.0000000000
N       -0.9701279563    0.3102873459    0.0000000000
H        0.9806576987    0.0063752302    0.0000000000
3    
Image 7/11, Energy =   -92.8231441232 (+3.183 kcal/mol)
C        0.0249511651   -0.1237661046    0.0000000000
N       -1.0855782790    0.1365794985    0.0000000000
H        1.0606271140   -0.0128133974    0.0000000000
3    
Image 8/11, Energy =   -92.8280745282 (+0.089 kcal/mol)
C        0.0346437671   -0.0110674876    0.0000000000
N       -1.0855409178   -0.2329354542    0.0000000000
H        1.0508971508    0.2440029392    0.0000000000
3    
Image 9/11, Energy =   -92.8281894229 (+0.017 kcal/mol)
C        0.0283469890    0.0138746527    0.0000000000
N       -0.9614941979   -0.5566150592    0.0000000000
H        0.9331472090    0.5427404053    0.0000000000
3    
Image 10/11, Energy =   -92.8282158335 (+0.000 kcal/mol)
C        0.0205086862    0.0225589462    0.0000000000
N       -0.7491295810   -0.8240317894   -0.0000000000
H        0.7286208949    0.8014728432    0.0000000000
