3    
Image 0/11, Energy =   -92.8141878334 (+8.783 kcal/mol)
C       -0.7519862184   -0.8272338399    0.0000000000
N        0.0394753354    0.0434721365    0.0000000000
H        0.7125108830    0.7837617034    0.0000000000
3    
Image 1/11, Energy =   -92.8051088845 (+14.480 kcal/mol)
C       -0.5859645747   -0.8811996118   -0.0000000000
N       -0.1327260460    0.1976242319    0.0000000000
H        0.7186906207    0.6835753799    0.0000000000
3    
Image 2/11, Energy =   -92.7750462001 (+33.345 kcal/mol)
C       -0.3769670004   -0.8621243179   -0.0000000000
N       -0.3073475742    0.3268641854   -0.0000000000
H        0.6843145746    0.5352601325    0.0000000000
3    
Image 3/11, Energy =   -92.7467489339 (+51.101 kcal/mol)
C       -0.2408832456   -0.7816944771   -0.0000000000
N       -0.4331731276    0.3973206765   -0.0000000000
H        0.6740563732    0.3843738006   -0.0000000000
3    
Image 4/11, Energy =   -92.7236064005 (+65.624 kcal/mol)
C       -0.1092497167   -0.6380872966    0.0000000000
N       -0.6387949884    0.4243207143    0.0000000000
H        0.7480447050    0.2137665823    0.0000000000
3    
Image 5/11, Energy =   -92.7590457944 (+43.385 kcal/mol)
C       -0.0470506735   -0.4470597618   -0.0000000000
N       -0.8518321141    0.3864014440    0.0000000000
H        0.8988827875    0.0606583178   -0.0000000000
3    
Image 6/11, Energy =   -92.8068399892 (+13.394 kcal/mol)
C       -0.0136723537   -0.2494306591    0.0000000000
N       -0.9995488349    0.3233082138    0.0000000000
H        1.0132211886   -0.0738775547   -0.0000000000
3    
Image 7/11, Energy =   -92.8266903278 (+0.938 kcal/mol)
C        0.0299965515   -0.0687221147    0.0000000000
N       -1.1112637750    0.0343118962    0.0000000000
H        1.0812672235    0.0344102185   -0.0000000000
3    
Image 8/11, Energy =   -92.8281696650 (+0.009 kcal/mol)
C        0.0264841621    0.0199292967    0.0000000000
N       -1.0653501803   -0.3259218850   -0.0000000000
H        1.0388660182    0.3059925884    0.0000000000
3    
Image 9/11, Energy =   -92.8281843381 (+0.000 kcal/mol)
C        0.0224040371    0.0197267308   -0.0000000000
N       -0.9776976794   -0.5313301155   -0.0000000000
H        0.9552936423    0.5116033847    0.0000000000
3    
Image 10/11, Energy =   -92.8275480253 (+0.399 kcal/mol)
C        0.0194260556    0.0213642891    0.0000000000
N       -0.7589320377   -0.8347584640    0.0000000000
H        0.7395059821    0.8133941749    0.0000000000
