3    
Image 0/11, Energy =   -92.8148741520 (+8.372 kcal/mol)
C       -0.7423976055   -0.8166733316   -0.0000000000
N        0.0415634250    0.0457411997    0.0000000000
H        0.7008341858    0.7709321319    0.0000000000
3    
Image 1/11, Energy =   -92.8035833530 (+15.457 kcal/mol)
C       -0.5474031792   -0.8973212403    0.0000000000
N       -0.1495425846    0.2040202577    0.0000000000
H        0.6969457654    0.6933009797    0.0000000000
3    
Image 2/11, Energy =   -92.7743911707 (+33.775 kcal/mol)
C       -0.3714493764   -0.8610876887    0.0000000000
N       -0.3112650831    0.3272879720    0.0000000000
H        0.6827144599    0.5337997129    0.0000000000
3    
Image 3/11, Energy =   -92.7422179178 (+53.965 kcal/mol)
C       -0.2158086727   -0.7662436311    0.0000000000
N       -0.4600977176    0.4019362270    0.0000000000
H        0.6759063904    0.3643074000    0.0000000000
3    
Image 4/11, Energy =   -92.7236067975 (+65.643 kcal/mol)
C       -0.1038564901   -0.6407811219    0.0000000000
N       -0.6401078125    0.4186157831    0.0000000000
H        0.7439643027    0.2221653347    0.0000000000
3    
Image 5/11, Energy =   -92.7469422855 (+51.000 kcal/mol)
C       -0.0489755873   -0.4924867478    0.0000000000
N       -0.8160737280    0.3851182376    0.0000000000
H        0.8650493154    0.1073685061    0.0000000000
3    
Image 6/11, Energy =   -92.7904783283 (+23.681 kcal/mol)
C       -0.0140011424   -0.3292410884    0.0000000000
N       -0.9597150501    0.3203196495    0.0000000000
H        0.9737161926    0.0089214349    0.0000000000
3    
Image 7/11, Energy =   -92.8215800101 (+4.164 kcal/mol)
C        0.0217464181   -0.1414726907    0.0000000000
N       -1.0772909591    0.1632489770    0.0000000000
H        1.0555445411   -0.0217762900    0.0000000000
3    
Image 8/11, Energy =   -92.8280081363 (+0.130 kcal/mol)
C        0.0353458911   -0.0162461489    0.0000000000
N       -1.0903621543   -0.2069024744    0.0000000000
H        1.0550162633    0.2231486207    0.0000000000
3    
Image 9/11, Energy =   -92.8281855449 (+0.019 kcal/mol)
C        0.0288644304    0.0129734440    0.0000000000
N       -0.9680909094   -0.5447416406    0.0000000000
H        0.9392264790    0.5317681953    0.0000000000
3    
Image 10/11, Energy =   -92.8282158335 (+0.000 kcal/mol)
C        0.0205086862    0.0225589462    0.0000000000
N       -0.7491295810   -0.8240317894   -0.0000000000
H        0.7286208949    0.8014728432    0.0000000000
