3    
Image 0/11, Energy =   -92.8141878334 (+8.384 kcal/mol)
C       -0.7519862184   -0.8272338399    0.0000000000
N        0.0394753354    0.0434721365    0.0000000000
H        0.7125108830    0.7837617034    0.0000000000
3    
Image 1/11, Energy =   -92.8039492119 (+14.808 kcal/mol)
C       -0.6232522862   -0.8497153169    0.0000000000
N       -0.1302354807    0.2138623973    0.0000000000
H        0.7534877669    0.6358529196    0.0000000000
3    
Image 2/11, Energy =   -92.7723411831 (+34.643 kcal/mol)
C       -0.4511951102   -0.8131015986   -0.0000000000
N       -0.2822715742    0.3663092427    0.0000000000
H        0.7334666845    0.4467923560    0.0000000000
3    
Image 3/11, Energy =   -92.7438849745 (+52.499 kcal/mol)
C       -0.2899800297   -0.7493722902   -0.0000000000
N       -0.4128025972    0.4381454398    0.0000000000
H        0.7027826270    0.3112268504    0.0000000000
3    
Image 4/11, Energy =   -92.7236064005 (+65.224 kcal/mol)
C       -0.1092497167   -0.6380872966    0.0000000000
N       -0.6387949884    0.4243207143    0.0000000000
H        0.7480447050    0.2137665823    0.0000000000
3    
Image 5/11, Energy =   -92.7396216629 (+55.175 kcal/mol)
C        0.0046004240   -0.5229158187    0.0000000000
N       -0.8270137967    0.2915091849   -0.0000000000
H        0.8224133727    0.2314066338   -0.0000000000
3    
Image 6/11, Energy =   -92.7704163342 (+35.851 kcal/mol)
C        0.0654844652   -0.4037812612   -0.0000000000
N       -0.9548095820    0.1331319371   -0.0000000000
H        0.8893251168    0.2706493242   -0.0000000000
3    
Image 7/11, Energy =   -92.8054353439 (+13.876 kcal/mol)
C        0.1116959887   -0.2284690340    0.0000000000
N       -1.0174121648   -0.2672158067    0.0000000000
H        0.9057161762    0.4956848407   -0.0000000000
3    
Image 8/11, Energy =   -92.8217505449 (+3.638 kcal/mol)
C        0.0969957115   -0.1008648621    0.0000000000
N       -0.9604497992   -0.5153568929   -0.0000000000
H        0.8634540877    0.6162217550    0.0000000000
3    
Image 9/11, Energy =   -92.8260531436 (+0.938 kcal/mol)
C        0.0693907145   -0.0167843832   -0.0000000000
N       -0.8652783021   -0.7092881832    0.0000000000
H        0.7958875875    0.7260725663   -0.0000000000
3    
Image 10/11, Energy =   -92.8275480253 (+0.000 kcal/mol)
C        0.0194260556    0.0213642891    0.0000000000
N       -0.7589320377   -0.8347584640    0.0000000000
H        0.7395059821    0.8133941749    0.0000000000
