3    
Image 0/11, Energy =   -92.8141878334 (+8.780 kcal/mol)
C       -0.7519862184   -0.8272338399    0.0000000000
N        0.0394753354    0.0434721365    0.0000000000
H        0.7125108830    0.7837617034    0.0000000000
3    
Image 1/11, Energy =   -92.8041265497 (+15.093 kcal/mol)
C       -0.6116149694   -0.8589899271   -0.0000000000
N       -0.1326498242    0.2102990366    0.0000000000
H        0.7442647937    0.6486908906    0.0000000000
3    
Image 2/11, Energy =   -92.7742356722 (+33.850 kcal/mol)
C       -0.4038492014   -0.8462564295   -0.0000000000
N       -0.2992000761    0.3401232455    0.0000000000
H        0.7030492775    0.5061331840    0.0000000000
3    
Image 3/11, Energy =   -92.7466299054 (+51.173 kcal/mol)
C       -0.2430481583   -0.7805946669    0.0000000000
N       -0.4328048529    0.3987196329   -0.0000000000
H        0.6758530112    0.3818750341   -0.0000000000
3    
Image 4/11, Energy =   -92.7236064005 (+65.621 kcal/mol)
C       -0.1092497167   -0.6380872966    0.0000000000
N       -0.6387949884    0.4243207143    0.0000000000
H        0.7480447050    0.2137665823    0.0000000000
3    
Image 5/11, Energy =   -92.7573090425 (+44.472 kcal/mol)
C       -0.0524451906   -0.4526617511   -0.0000000000
N       -0.8429749383    0.3939901994    0.0000000000
H        0.8954201289    0.0586715516    0.0000000000
3    
Image 6/11, Energy =   -92.8036059838 (+15.420 kcal/mol)
C       -0.0055927885   -0.2696693766    0.0000000000
N       -1.0030992161    0.2948000904   -0.0000000000
H        1.0086920046   -0.0251307137   -0.0000000000
3    
Image 7/11, Energy =   -92.8280852402 (+0.059 kcal/mol)
C        0.0267998601    0.0105259227    0.0000000000
N       -1.0744614951   -0.3158452626    0.0000000000
H        1.0476616350    0.3053193399    0.0000000000
3    
Image 8/11, Energy =   -92.8281532576 (+0.016 kcal/mol)
C        0.0197570403    0.0231863810    0.0000000000
N       -0.9765769374   -0.5370546201   -0.0000000000
H        0.9568198971    0.5138682390    0.0000000000
3    
Image 9/11, Energy =   -92.8281794799 (+0.000 kcal/mol)
C        0.0159598129    0.0277187506   -0.0000000000
N       -0.8375487775   -0.7332822312    0.0000000000
H        0.8215889646    0.7055634805   -0.0000000000
3    
Image 10/11, Energy =   -92.8275480253 (+0.396 kcal/mol)
C        0.0194260556    0.0213642891    0.0000000000
N       -0.7589320377   -0.8347584640    0.0000000000
H        0.7395059821    0.8133941749    0.0000000000
