3    
Image 0/11, Energy =   -92.8141878334 (+8.384 kcal/mol)
C       -0.7519862184   -0.8272338399    0.0000000000
N        0.0394753354    0.0434721365    0.0000000000
H        0.7125108830    0.7837617034    0.0000000000
3    
Image 1/11, Energy =   -92.8039492119 (+14.808 kcal/mol)
C       -0.6232522862   -0.8497153169    0.0000000000
N       -0.1302354807    0.2138623973    0.0000000000
H        0.7534877669    0.6358529196    0.0000000000
3    
Image 2/11, Energy =   -92.7723026228 (+34.667 kcal/mol)
C       -0.4490109155   -0.8138120420   -0.0000000000
N       -0.2833805052    0.3653898680    0.0000000000
H        0.7323914207    0.4484221740    0.0000000000
3    
Image 3/11, Energy =   -92.7443735382 (+52.193 kcal/mol)
C       -0.2860211054   -0.7539106927   -0.0000000000
N       -0.4142699781    0.4338446361    0.0000000000
H        0.7002910835    0.3200660567    0.0000000000
3    
Image 4/11, Energy =   -92.7236064005 (+65.224 kcal/mol)
C       -0.1092497167   -0.6380872966    0.0000000000
N       -0.6387949884    0.4243207143    0.0000000000
H        0.7480447050    0.2137665823    0.0000000000
3    
Image 5/11, Energy =   -92.7406095246 (+54.555 kcal/mol)
C       -0.0059840159   -0.4993679765   -0.0000000000
N       -0.8296523635    0.2829981575   -0.0000000000
H        0.8356363794    0.2163698190   -0.0000000000
3    
Image 6/11, Energy =   -92.7733402610 (+34.016 kcal/mol)
C        0.0525519186   -0.3935488784   -0.0000000000
N       -0.9582845711    0.1484979753   -0.0000000000
H        0.9057326525    0.2450509031    0.0000000000
3    
Image 7/11, Energy =   -92.7952633940 (+20.259 kcal/mol)
C        0.0708182822   -0.1987839444    0.0000000000
N       -1.0003170397   -0.3007216345    0.0000000000
H        0.9294987575    0.4995055789   -0.0000000000
3    
Image 8/11, Energy =   -92.8215727761 (+3.750 kcal/mol)
C        0.0849076292   -0.0986326525    0.0000000000
N       -0.9637178570   -0.5060939213    0.0000000000
H        0.8788102277    0.6047265738    0.0000000000
3    
Image 9/11, Energy =   -92.8207879989 (+4.242 kcal/mol)
C        0.0764634725   -0.0029159614   -0.0000000000
N       -0.8786576873   -0.7188261304    0.0000000000
H        0.8021942148    0.7217420918   -0.0000000000
3    
Image 10/11, Energy =   -92.8275480253 (+0.000 kcal/mol)
C        0.0194260556    0.0213642891    0.0000000000
N       -0.7589320377   -0.8347584640    0.0000000000
H        0.7395059821    0.8133941749    0.0000000000
