3    
Image 0/11, Energy =   -92.8141878334 (+8.699 kcal/mol)
C       -0.7519862184   -0.8272338399    0.0000000000
N        0.0394753354    0.0434721365    0.0000000000
H        0.7125108830    0.7837617034    0.0000000000
3    
Image 1/11, Energy =   -92.8046336522 (+14.695 kcal/mol)
C       -0.5984530394   -0.8716599027   -0.0000000000
N       -0.1323335048    0.2047697431    0.0000000000
H        0.7307865442    0.6668901596    0.0000000000
3    
Image 2/11, Energy =   -92.7749924295 (+33.295 kcal/mol)
C       -0.3833967233   -0.8588920647   -0.0000000000
N       -0.3050950431    0.3292146918    0.0000000000
H        0.6884917664    0.5296773729    0.0000000000
3    
Image 3/11, Energy =   -92.7467689445 (+51.005 kcal/mol)
C       -0.2388359965   -0.7826131072   -0.0000000000
N       -0.4340024258    0.3966203552   -0.0000000000
H        0.6728384224    0.3859927520   -0.0000000000
3    
Image 4/11, Energy =   -92.7236064005 (+65.540 kcal/mol)
C       -0.1092497167   -0.6380872966    0.0000000000
N       -0.6387949884    0.4243207143    0.0000000000
H        0.7480447050    0.2137665823    0.0000000000
3    
Image 5/11, Energy =   -92.7588815974 (+43.404 kcal/mol)
C       -0.0502314673   -0.4478253048    0.0000000000
N       -0.8482736632    0.3952605817    0.0000000000
H        0.8985051305    0.0525647231   -0.0000000000
3    
Image 6/11, Energy =   -92.8062092120 (+13.706 kcal/mol)
C       -0.0162332620   -0.2482937956    0.0000000000
N       -0.9949247218    0.3214454409    0.0000000000
H        1.0111579838   -0.0731516453   -0.0000000000
3    
Image 7/11, Energy =   -92.8231735732 (+3.061 kcal/mol)
C        0.0363067571   -0.1136490137    0.0000000000
N       -1.0884619722    0.0260152126    0.0000000000
H        1.0521552151    0.0876338011   -0.0000000000
3    
Image 8/11, Energy =   -92.8280442579 (+0.004 kcal/mol)
C        0.0232710296    0.0307775338    0.0000000000
N       -1.0649757977   -0.3256662845   -0.0000000000
H        1.0417047681    0.2948887507    0.0000000000
3    
Image 9/11, Energy =   -92.8280509048 (+0.000 kcal/mol)
C        0.0170547985    0.0273065747   -0.0000000000
N       -0.9732702362   -0.5348004903   -0.0000000000
H        0.9562154377    0.5074939156    0.0000000000
3    
Image 10/11, Energy =   -92.8275480253 (+0.316 kcal/mol)
C        0.0194260556    0.0213642891    0.0000000000
N       -0.7589320377   -0.8347584640    0.0000000000
H        0.7395059821    0.8133941749    0.0000000000
