3    
Image 0/11, Energy =   -92.8148741520 (+8.372 kcal/mol)
C       -0.7423976055   -0.8166733316   -0.0000000000
N        0.0415634250    0.0457411997    0.0000000000
H        0.7008341858    0.7709321319    0.0000000000
3    
Image 1/11, Energy =   -92.8035833530 (+15.457 kcal/mol)
C       -0.5474031792   -0.8973212403    0.0000000000
N       -0.1495425846    0.2040202577    0.0000000000
H        0.6969457654    0.6933009797    0.0000000000
3    
Image 2/11, Energy =   -92.7743911707 (+33.775 kcal/mol)
C       -0.3714493764   -0.8610876887    0.0000000000
N       -0.3112650831    0.3272879720    0.0000000000
H        0.6827144599    0.5337997129    0.0000000000
3    
Image 3/11, Energy =   -92.7422179178 (+53.965 kcal/mol)
C       -0.2158086727   -0.7662436311    0.0000000000
N       -0.4600977176    0.4019362270    0.0000000000
H        0.6759063904    0.3643074000    0.0000000000
3    
Image 4/11, Energy =   -92.7236067975 (+65.643 kcal/mol)
C       -0.1038564901   -0.6407811219    0.0000000000
N       -0.6401078125    0.4186157831    0.0000000000
H        0.7439643027    0.2221653347    0.0000000000
3    
Image 5/11, Energy =   -92.7489403726 (+49.746 kcal/mol)
C       -0.0458550773   -0.4850021637    0.0000000000
N       -0.8246025993    0.3805124115    0.0000000000
H        0.8704576767    0.1044897481    0.0000000000
3    
Image 6/11, Energy =   -92.7955590388 (+20.492 kcal/mol)
C       -0.0079010361   -0.3067772481    0.0000000000
N       -0.9780272173    0.3022030720    0.0000000000
H        0.9859282534    0.0045741722    0.0000000000
3    
Image 7/11, Energy =   -92.8241557176 (+2.548 kcal/mol)
C        0.0272644673   -0.1105733862    0.0000000000
N       -1.0913949317    0.1117658064    0.0000000000
H        1.0641304645   -0.0011924238    0.0000000000
3    
Image 8/11, Energy =   -92.8281145680 (+0.064 kcal/mol)
C        0.0339838035   -0.0073875216    0.0000000000
N       -1.0825798092   -0.2476396604    0.0000000000
H        1.0485960058    0.2550271795    0.0000000000
3    
Image 9/11, Energy =   -92.8281921311 (+0.015 kcal/mol)
C        0.0280102461    0.0144063792    0.0000000000
N       -0.9575478109   -0.5636210924    0.0000000000
H        0.9295375648    0.5492147120    0.0000000000
3    
Image 10/11, Energy =   -92.8282158335 (+0.000 kcal/mol)
C        0.0205086862    0.0225589462    0.0000000000
N       -0.7491295810   -0.8240317894   -0.0000000000
H        0.7286208949    0.8014728432    0.0000000000
