6    
Image 0/11, Energy =  -169.0522692293 (+0.000 kcal/mol)
C       -0.3689809232   -1.4576547332   -1.3858823910
C       -0.1536196575   -0.5941379364   -0.5627748996
H        0.0498937432    0.2058682499    0.1931202386
H       -0.5557149982   -2.2230003307   -2.1042277546
C        0.4068909404    1.6172446315    1.5286738868
N        0.6215308952    2.4516801189    2.3310909145
6    
Image 1/11, Energy =  -169.0522614440 (+0.005 kcal/mol)
C       -0.3537175922   -1.4522267621   -1.3627094948
C       -0.2697795837   -0.5175364196   -0.6119476487
H       -0.1374532858    0.2713685364    0.1233428694
H       -0.4020666175   -2.2636811237   -2.0272887721
C        0.4417444795    1.5741157027    1.5421745785
N        0.7212726061    2.3879600498    2.3364284629
6    
Image 2/11, Energy =  -169.0492909813 (+1.869 kcal/mol)
C       -0.3351321275   -1.4368417948   -1.3309280150
C       -0.3875381264   -0.4513391412   -0.6506336997
H       -0.3211075499    0.3571913487    0.0609619589
H       -0.2419611116   -2.2879639548   -1.9357416352
C        0.4688520603    1.5232373948    1.5264517924
N        0.8168868727    2.2957161470    2.3298895875
6    
Image 3/11, Energy =  -169.0453266844 (+4.357 kcal/mol)
C       -0.2989192925   -1.4108641325   -1.2804688435
C       -0.5046313432   -0.3916991319   -0.6858970979
H       -0.5156485529    0.4582015051   -0.0363000983
H       -0.0811044320   -2.2873206591   -1.8067400934
C        0.4776081449    1.4752966818    1.4865176758
N        0.9226954667    2.1563857343    2.3228884480
6    
Image 4/11, Energy =  -169.0405704686 (+7.341 kcal/mol)
C       -0.2517407464   -1.3644439283   -1.2142033549
C       -0.6145872450   -0.3363175489   -0.7220880167
H       -0.7287957030    0.5494156854   -0.1429436892
H        0.0811457581   -2.2575953862   -1.6456378143
C        0.4852803400    1.4354612749    1.4184792818
N        1.0286975961    1.9734798958    2.3063935896
6    
Image 5/11, Energy =  -169.0353901852 (+10.592 kcal/mol)
C       -0.2089842482   -1.3032596982   -1.1304512655
C       -0.6970185226   -0.2760953232   -0.7419329695
H       -0.9311321074    0.6399452186   -0.2638785996
H        0.2367613991   -2.1946492538   -1.4527820315
C        0.4828885440    1.4040691512    1.3305110366
N        1.1174849731    1.7299899034    2.2585338139
6    
Image 6/11, Energy =  -169.0291252374 (+14.523 kcal/mol)
C       -0.1843278407   -1.2274395994   -1.0365838977
C       -0.7444684850   -0.2116965656   -0.7341465882
H       -1.1092876504    0.7188826233   -0.3893259520
H        0.3847543521   -2.0888269576   -1.2354291739
C        0.4819866474    1.3479215298    1.2286926341
N        1.1713429693    1.4611589642    2.1667929624
6    
Image 7/11, Energy =  -169.0171051938 (+22.066 kcal/mol)
C       -0.1890963787   -1.1543050816   -0.9689894835
C       -0.7317791786   -0.1245773200   -0.6781368746
H       -1.2456460321    0.7737084121   -0.4956016759
H        0.5089942689   -1.9416332862   -1.0022658540
C        0.4757095484    1.2283313418    1.1061102142
N        1.1818177792    1.2184759471    2.0388836543
6    
Image 8/11, Energy =  -168.9964996528 (+34.996 kcal/mol)
C       -0.2313241190   -1.1086710581   -0.9688117851
C       -0.6269768441   -0.0164798931   -0.5465808473
H       -1.3141525863    0.7842981153   -0.5588284296
H        0.5714272487   -1.7988014422   -0.8261151265
C        0.4534594380    1.0326530717    0.9850332833
N        1.1475668841    1.1070011930    1.9153028716
6    
Image 9/11, Energy =  -169.0167611518 (+22.282 kcal/mol)
C       -0.2670600377   -1.0737942932   -0.9860532012
C       -0.4954124110    0.0914103395   -0.3732707371
H       -1.3081680253    0.7668757164   -0.5580815713
H        0.5894664115   -1.7049236737   -0.7444549849
C        0.4034473370    0.8322116725    0.8710205738
N        1.0777267441    1.0882202420    1.7908399010
6    
Image 10/11, Energy =  -169.0437609544 (+5.339 kcal/mol)
C       -0.2721093513   -1.0384613434   -0.9953339881
C       -0.4664498990    0.1336943575   -0.3047184047
H       -1.3026915424    0.8069996864   -0.5503883163
H        0.6404231461   -1.5232274468   -0.5526624607
C        0.3524169885    0.6272448767    0.7650856657
N        1.0484106581    0.9937498643    1.6380174988
