6    
Image 0/11, Energy =  -169.0522692293 (+0.160 kcal/mol)
C       -0.3689809232   -1.4576547332   -1.3858823910
C       -0.1536196575   -0.5941379364   -0.5627748996
H        0.0498937432    0.2058682499    0.1931202386
H       -0.5557149982   -2.2230003307   -2.1042277546
C        0.4068909404    1.6172446315    1.5286738868
N        0.6215308952    2.4516801189    2.3310909145
6    
Image 1/11, Energy =  -169.0525239466 (+0.000 kcal/mol)
C       -0.3408132741   -1.4507798977   -1.3523914934
C       -0.2713965690   -0.5134991886   -0.6081358753
H       -0.1527334446    0.3096989477    0.0917392379
H       -0.3840481573   -2.2797257883   -1.9937118949
C        0.3560037729    1.6457252960    1.4960770905
N        0.7929876460    2.2885806516    2.3664229835
6    
Image 2/11, Energy =  -169.0501119420 (+1.514 kcal/mol)
C       -0.3095771437   -1.4311960666   -1.3090783223
C       -0.3895585510   -0.4332543754   -0.6523307801
H       -0.3545365296    0.4265421426   -0.0001147541
H       -0.2075503749   -2.3138817737   -1.8622249960
C        0.3207989939    1.6587989954    1.4671191731
N        0.9404235930    2.0929911196    2.3566297163
6    
Image 3/11, Energy =  -169.0465600203 (+3.742 kcal/mol)
C       -0.2761303666   -1.3956469568   -1.2516092286
C       -0.5006634336   -0.3608105014   -0.6945739398
H       -0.5562850283    0.5303400263   -0.0990943291
H       -0.0338787890   -2.3064223500   -1.7060690731
C        0.3120484983    1.6445956465    1.4411526628
N        1.0549091029    1.8879441661    2.3101939294
6    
Image 4/11, Energy =  -169.0418375568 (+6.706 kcal/mol)
C       -0.2413268904   -1.3425190425   -1.1816266771
C       -0.6022741269   -0.2951407128   -0.7323304436
H       -0.7596333677    0.6201868733   -0.2099302986
H        0.1345691135   -2.2564931047   -1.5244564823
C        0.3255813347    1.5889730620    1.4082430021
N        1.1430839156    1.6849930383    2.2401008813
6    
Image 5/11, Energy =  -169.0359662708 (+10.390 kcal/mol)
C       -0.2111965392   -1.2750750882   -1.1060341161
C       -0.6860753836   -0.2352321768   -0.7595970432
H       -0.9561480669    0.6913095693   -0.3266778928
H        0.2891392570   -2.1664038535   -1.3265931640
C        0.3578782339    1.4836377726    1.3561776277
N        1.2064024824    1.5017638963    2.1627245490
6    
Image 6/11, Energy =  -169.0276800533 (+15.590 kcal/mol)
C       -0.1956926700   -1.2008839974   -1.0376431303
C       -0.7342818332   -0.1728112323   -0.7568730926
H       -1.1330766317    0.7443046116   -0.4384252590
H        0.4221448421   -2.0396726247   -1.1198965843
C        0.4007484859    1.3227638983    1.2688727703
N        1.2401577704    1.3462994653    2.0839652028
6    
Image 7/11, Energy =  -169.0118342786 (+25.533 kcal/mol)
C       -0.2107831099   -1.1406428163   -1.0048368609
C       -0.7114995120   -0.0945232096   -0.6830205486
H       -1.2656763163    0.7749512622   -0.5285291508
H        0.5207658750   -1.8860261339   -0.9244004985
C        0.4386467093    1.1118668726    1.1448785751
N        1.2285463124    1.2343741632    1.9959083747
6    
Image 8/11, Energy =  -168.9962095799 (+35.338 kcal/mol)
C       -0.2521019788   -1.1071225882   -1.0124977123
C       -0.6147169085    0.0007661855   -0.5348184061
H       -1.3285273871    0.7771610506   -0.5801572646
H        0.5733091582   -1.7452323251   -0.7799517282
C        0.4535628949    0.9029219771    1.0129924518
N        1.1684741816    1.1715058664    1.8944325132
6    
Image 9/11, Energy =  -169.0185482367 (+21.320 kcal/mol)
C       -0.2719627220   -1.0757314906   -1.0098527896
C       -0.5069208529    0.0856170831   -0.3812100868
H       -1.3135117808    0.7752544816   -0.5708756611
H        0.5941011692   -1.6770998350   -0.7120047022
C        0.4053045038    0.7756590956    0.8955908692
N        1.0929896319    1.1163007495    1.7783522509
6    
Image 10/11, Energy =  -169.0437609544 (+5.499 kcal/mol)
C       -0.2721093513   -1.0384613434   -0.9953339881
C       -0.4664498990    0.1336943575   -0.3047184047
H       -1.3026915424    0.8069996864   -0.5503883163
H        0.6404231461   -1.5232274468   -0.5526624607
C        0.3524169885    0.6272448767    0.7650856657
N        1.0484106581    0.9937498643    1.6380174988
