6    
Image 0/11, Energy =  -169.0522692291 (+0.817 kcal/mol)
C       -0.3689809232   -1.4576547332   -1.3858823910
C       -0.1536196575   -0.5941379364   -0.5627748996
H        0.0498937432    0.2058682499    0.1931202386
H       -0.5557149982   -2.2230003307   -2.1042277546
C        0.4068909404    1.6172446315    1.5286738868
N        0.6215308952    2.4516801189    2.3310909145
6    
Image 1/11, Energy =  -169.0535711803 (+0.000 kcal/mol)
C       -0.3537777793   -1.4819663067   -1.3932750861
C       -0.2630274043   -0.5670923656   -0.6234402542
H       -0.1394786582    0.2397930541    0.0862283426
H       -0.4199694410   -2.2914601217   -2.0614063037
C        0.3765009472    1.7009365048    1.5775732128
N        0.7997524318    2.3997891775    2.4143200399
6    
Image 2/11, Energy =  -169.0521316450 (+0.903 kcal/mol)
C       -0.3287496531   -1.4693222473   -1.3652830824
C       -0.3569523895   -0.5127847964   -0.6427559686
H       -0.3049124641    0.3235473271    0.0388624664
H       -0.2777699717   -2.3164172382   -1.9863624297
C        0.3294977363    1.7181548724    1.5573287094
N        0.9388868131    2.2568221085    2.3982104156
6    
Image 3/11, Energy =  -169.0503483929 (+2.022 kcal/mol)
C       -0.3058406042   -1.4495284586   -1.3253099481
C       -0.4140920351   -0.4554619785   -0.6643556132
H       -0.4181384509    0.4098717485   -0.0214576956
H       -0.1781530492   -2.3300039223   -1.8854256131
C        0.2904832083    1.7417940780    1.5266077247
N        1.0257409974    2.0833285160    2.3699412449
6    
Image 4/11, Energy =  -169.0461817004 (+4.637 kcal/mol)
C       -0.2640872349   -1.4031613915   -1.2442565493
C       -0.5234889943   -0.3658468948   -0.7041980538
H       -0.6368902731    0.5397703859   -0.1437496551
H        0.0080999212   -2.3175672925   -1.6845874615
C        0.2753021060    1.7638873332    1.4942584421
N        1.1410646436    1.7829181374    2.2825332222
6    
Image 5/11, Energy =  -169.0409944024 (+7.892 kcal/mol)
C       -0.2230445842   -1.3392581020   -1.1469170526
C       -0.6297389582   -0.2878328831   -0.7462437326
H       -0.8662757018    0.6439016331   -0.2922888879
H        0.1859911688   -2.2575000970   -1.4522154693
C        0.3144401872    1.7552569414    1.4713412419
N        1.2186278331    1.4854327306    2.1663237832
6    
Image 6/11, Energy =  -169.0357957656 (+11.154 kcal/mol)
C       -0.1946705899   -1.2592676150   -1.0507331511
C       -0.7188584916   -0.2169583965   -0.7921485150
H       -1.0694272340    0.7225609954   -0.4568297644
H        0.3251295115   -2.1576192583   -1.2124151628
C        0.3760033452    1.6711542120    1.4522414576
N        1.2818234100    1.2401299630    2.0598851162
6    
Image 7/11, Energy =  -169.0300538119 (+14.757 kcal/mol)
C       -0.1744216639   -1.1617742294   -0.9696327734
C       -0.7964574812   -0.1519823795   -0.8317234105
H       -1.2498039004    0.7708467552   -0.6011177377
H        0.4538311016   -2.0031566920   -0.9845033815
C        0.4155651384    1.4403100452    1.3821627450
N        1.3512866647    1.1057564706    2.0048143927
6    
Image 8/11, Energy =  -169.0179661759 (+22.342 kcal/mol)
C       -0.1856784082   -1.1106468045   -0.9533966016
C       -0.7716180446   -0.0850375849   -0.7614823484
H       -1.3008063231    0.8068696656   -0.6115893556
H        0.5276253325   -1.8714444778   -0.8415983079
C        0.4189495880    1.1612489823    1.2071334220
N        1.3115277510    1.0990102284    1.9609332315
6    
Image 9/11, Energy =  -168.9961777354 (+36.015 kcal/mol)
C       -0.2581068494   -1.1000605459   -1.0109767231
C       -0.6106691565    0.0165195734   -0.5434236257
H       -1.3041577608    0.8089943551   -0.6162727333
H        0.5436398058   -1.7544593245   -0.7420825243
C        0.4370372373    0.8926986038    1.0290208344
N        1.1922566445    1.1363072472    1.8837348694
6    
Image 10/11, Energy =  -169.0437609544 (+6.156 kcal/mol)
C       -0.2721093513   -1.0384613434   -0.9953339881
C       -0.4664498990    0.1336943575   -0.3047184047
H       -1.3026915424    0.8069996864   -0.5503883163
H        0.6404231461   -1.5232274468   -0.5526624607
C        0.3524169885    0.6272448767    0.7650856657
N        1.0484106581    0.9937498643    1.6380174988
