6    
Image 0/11, Energy =  -169.0522692293 (+0.185 kcal/mol)
C       -0.3689809232   -1.4576547332   -1.3858823910
C       -0.1536196575   -0.5941379364   -0.5627748996
H        0.0498937432    0.2058682499    0.1931202386
H       -0.5557149982   -2.2230003307   -2.1042277546
C        0.4068909404    1.6172446315    1.5286738868
N        0.6215308952    2.4516801189    2.3310909145
6    
Image 1/11, Energy =  -169.0525634417 (+0.000 kcal/mol)
C       -0.3412720771   -1.4513692297   -1.3531928492
C       -0.2708790238   -0.5150202951   -0.6077405049
H       -0.1514422146    0.3075600424    0.0926619340
H       -0.3853756485   -2.2792751660   -1.9959347013
C        0.3575809854    1.6460149192    1.4970923575
N        0.7913879476    2.2920897592    2.3671138072
6    
Image 2/11, Energy =  -169.0502207719 (+1.470 kcal/mol)
C       -0.3107679029   -1.4326812557   -1.3112116196
C       -0.3879549006   -0.4367729390   -0.6510766748
H       -0.3511043281    0.4220113524    0.0025229134
H       -0.2109815690   -2.3136094255   -1.8678372336
C        0.3237705745    1.6595667037    1.4682808351
N        0.9370381228    2.1014856041    2.3593218206
6    
Image 3/11, Energy =  -169.0466488917 (+3.711 kcal/mol)
C       -0.2768970849   -1.3968524265   -1.2534194049
C       -0.4996721463   -0.3631733330   -0.6933678878
H       -0.5536836220    0.5276596950   -0.0971676419
H       -0.0363675380   -2.3069760330   -1.7101783758
C        0.3137673382    1.6459021714    1.4413747297
N        1.0528530316    1.8934399555    2.3127586115
6    
Image 4/11, Energy =  -169.0419336775 (+6.670 kcal/mol)
C       -0.2420293966   -1.3439700325   -1.1833656534
C       -0.6014346247   -0.2972100183   -0.7310853303
H       -0.7568148674    0.6178821752   -0.2076116290
H        0.1319952961   -2.2576871284   -1.5288845497
C        0.3274747815    1.5906936313    1.4078900440
N        1.1408087993    1.6902914971    2.2430570885
6    
Image 5/11, Energy =  -169.0360414557 (+10.368 kcal/mol)
C       -0.2115393199   -1.2763556938   -1.1068977775
C       -0.6854854081   -0.2367231451   -0.7585595247
H       -0.9538168194    0.6898113086   -0.3243348544
H        0.2871852976   -2.1677986109   -1.3305753525
C        0.3593998325    1.4852424592    1.3552642951
N        1.2042563991    1.5058238051    2.1651031804
6    
Image 6/11, Energy =  -169.0277571032 (+15.566 kcal/mol)
C       -0.1957270969   -1.2018302558   -1.0380633507
C       -0.7339526628   -0.1738402973   -0.7563711054
H       -1.1313737645    0.7434392617   -0.4366080606
H        0.4207012198   -2.0412836395   -1.1231081110
C        0.4016098363    1.3243473390    1.2683419008
N        1.2387424272    1.3491677209    2.0858086333
6    
Image 7/11, Energy =  -169.0119182438 (+25.505 kcal/mol)
C       -0.2107760742   -1.1409656418   -1.0051117483
C       -0.7116897123   -0.0950035760   -0.6835266997
H       -1.2651813741    0.7746215034   -0.5278505069
H        0.5202557711   -1.8868420885   -0.9254199808
C        0.4389103550    1.1127496950    1.1449606121
N        1.2284809952    1.2354402541    1.9969482142
6    
Image 8/11, Energy =  -168.9962095799 (+35.363 kcal/mol)
C       -0.2521019788   -1.1071225882   -1.0124977123
C       -0.6147169085    0.0007661855   -0.5348184061
H       -1.3285273871    0.7771610506   -0.5801572646
H        0.5733091582   -1.7452323251   -0.7799517282
C        0.4535628949    0.9029219771    1.0129924518
N        1.1684741816    1.1715058664    1.8944325132
6    
Image 9/11, Energy =  -169.0185482367 (+21.345 kcal/mol)
C       -0.2719627220   -1.0757314906   -1.0098527896
C       -0.5069208529    0.0856170831   -0.3812100868
H       -1.3135117808    0.7752544816   -0.5708756611
H        0.5941011692   -1.6770998350   -0.7120047022
C        0.4053045038    0.7756590956    0.8955908692
N        1.0929896319    1.1163007495    1.7783522509
6    
Image 10/11, Energy =  -169.0437609544 (+5.524 kcal/mol)
C       -0.2721093513   -1.0384613434   -0.9953339881
C       -0.4664498990    0.1336943575   -0.3047184047
H       -1.3026915424    0.8069996864   -0.5503883163
H        0.6404231461   -1.5232274468   -0.5526624607
C        0.3524169885    0.6272448767    0.7650856657
N        1.0484106581    0.9937498643    1.6380174988
