6    
Image 0/11, Energy =  -169.0522692293 (+0.817 kcal/mol)
C       -0.3689809232   -1.4576547332   -1.3858823910
C       -0.1536196575   -0.5941379364   -0.5627748996
H        0.0498937432    0.2058682499    0.1931202386
H       -0.5557149982   -2.2230003307   -2.1042277546
C        0.4068909404    1.6172446315    1.5286738868
N        0.6215308952    2.4516801189    2.3310909145
6    
Image 1/11, Energy =  -169.0535707600 (+0.000 kcal/mol)
C       -0.3535362996   -1.4841103504   -1.3950242036
C       -0.2619950291   -0.5699879307   -0.6245032075
H       -0.1399070160    0.2371892412    0.0844159481
H       -0.4218979058   -2.2927770485   -2.0639227374
C        0.3736387717    1.7085538290    1.5802125951
N        0.8036976017    2.4011321868    2.4188215703
6    
Image 2/11, Energy =  -169.0520985476 (+0.924 kcal/mol)
C       -0.3275200472   -1.4702711209   -1.3675700720
C       -0.3588606542   -0.5155039438   -0.6430067367
H       -0.3108767890    0.3197059242    0.0392705095
H       -0.2748590745   -2.3170533321   -1.9887220829
C        0.3260061605    1.7269010861    1.5604730647
N        0.9461103618    2.2562212963    2.3995554761
6    
Image 3/11, Energy =  -169.0504476763 (+1.960 kcal/mol)
C       -0.3061542300   -1.4526422730   -1.3287141218
C       -0.4143792266   -0.4602939281   -0.6651403245
H       -0.4181029837    0.4016667279   -0.0181004289
H       -0.1799665475   -2.3295093550   -1.8948070921
C        0.2938144734    1.7424221549    1.5324601457
N        1.0247885346    2.0983566357    2.3743017883
6    
Image 4/11, Energy =  -169.0461815060 (+4.637 kcal/mol)
C       -0.2637289956   -1.4034159069   -1.2445168880
C       -0.5246967904   -0.3663859690   -0.7053139987
H       -0.6384074620    0.5389890157   -0.1445288275
H        0.0087277989   -2.3176270920   -1.6853103595
C        0.2767772653    1.7629143311    1.4950657286
N        1.1413283373    1.7855256531    2.2846043252
6    
Image 5/11, Energy =  -169.0409386046 (+7.927 kcal/mol)
C       -0.2222140175   -1.3391463363   -1.1469829299
C       -0.6329879845   -0.2889489096   -0.7474132251
H       -0.8726973476    0.6423383183   -0.2945782290
H        0.1896704260   -2.2562571405   -1.4518706382
C        0.3182857150    1.7536743680    1.4704233253
N        1.2199431856    1.4883396871    2.1704219103
6    
Image 6/11, Energy =  -169.0358800097 (+11.101 kcal/mol)
C       -0.1939339715   -1.2620751447   -1.0539117510
C       -0.7218040054   -0.2225086775   -0.7917339567
H       -1.0748252170    0.7155517610   -0.4549780916
H        0.3279900860   -2.1584706367   -1.2197967200
C        0.3823668071    1.6786383934    1.4501317781
N        1.2802059949    1.2488642296    2.0702889260
6    
Image 7/11, Energy =  -169.0305293295 (+14.459 kcal/mol)
C       -0.1761877014   -1.1679227651   -0.9749285758
C       -0.7940710125   -0.1561035287   -0.8327022711
H       -1.2434739011    0.7678540076   -0.5983012930
H        0.4451365272   -2.0142878318   -0.9980605041
C        0.4160681770    1.4585611598    1.3947326931
N        1.3525278406    1.1118990345    2.0092601886
6    
Image 8/11, Energy =  -169.0188672914 (+21.777 kcal/mol)
C       -0.1860230353   -1.1140084684   -0.9560249718
C       -0.7736015578   -0.0891689712   -0.7672250478
H       -1.2942990043    0.8066617823   -0.6084830717
H        0.5207038568   -1.8821392419   -0.8527945526
C        0.4188938803    1.1699165862    1.2168584344
N        1.3143257568    1.1087382681    1.9676690887
6    
Image 9/11, Energy =  -168.9962113391 (+35.994 kcal/mol)
C       -0.2606958484   -1.1020337438   -1.0128404165
C       -0.6093262248    0.0145947599   -0.5445197352
H       -1.2988316303    0.8109658028   -0.6112404485
H        0.5385882200   -1.7615835974   -0.7507693796
C        0.4437724692    0.8875005461    1.0299403931
N        1.1864929612    1.1505563746    1.8894296215
6    
Image 10/11, Energy =  -169.0437609544 (+6.156 kcal/mol)
C       -0.2721093513   -1.0384613434   -0.9953339881
C       -0.4664498990    0.1336943575   -0.3047184047
H       -1.3026915424    0.8069996864   -0.5503883163
H        0.6404231461   -1.5232274468   -0.5526624607
C        0.3524169885    0.6272448767    0.7650856657
N        1.0484106581    0.9937498643    1.6380174988
