6    
Image 0/11, Energy =  -169.0522692293 (+0.000 kcal/mol)
C       -0.3689809232   -1.4576547332   -1.3858823910
C       -0.1536196575   -0.5941379364   -0.5627748996
H        0.0498937432    0.2058682499    0.1931202386
H       -0.5557149982   -2.2230003307   -2.1042277546
C        0.4068909404    1.6172446315    1.5286738868
N        0.6215308952    2.4516801189    2.3310909145
6    
Image 1/11, Energy =  -169.0455110332 (+4.241 kcal/mol)
C       -0.3590592527   -1.4496957289   -1.3794755522
C       -0.3124977150   -0.5340903491   -0.5446179456
H       -0.0745347589    0.3274769933    0.0932206382
H       -0.3952813926   -2.2697503112   -2.0325088530
C        0.4368262937    1.5579814301    1.5433766547
N        0.7045468304    2.3680779693    2.3200050592
6    
Image 2/11, Energy =  -169.0424398126 (+6.168 kcal/mol)
C       -0.3240622407   -1.4247571844   -1.3564493009
C       -0.4265550793   -0.4882611447   -0.5761760881
H       -0.2893112099    0.4183510709    0.0086256125
H       -0.2451646683   -2.2946208078   -1.9473468901
C        0.4983558305    1.4724330017    1.5766436483
N        0.7867373646    2.3168550596    2.2947030209
6    
Image 3/11, Energy =  -169.0411684099 (+6.966 kcal/mol)
C       -0.2982761853   -1.3939412716   -1.3221046991
C       -0.4937765497   -0.4227963333   -0.6225437557
H       -0.5339907894    0.4528587237   -0.0150048635
H       -0.0937797187   -2.2801604990   -1.8410450195
C        0.5619567199    1.4108111211    1.5292667287
N        0.8578665285    2.2332282635    2.2714316178
6    
Image 4/11, Energy =  -169.0264997620 (+16.171 kcal/mol)
C       -0.2807206741   -1.3722564346   -1.2668888542
C       -0.5237509039   -0.3187870191   -0.6229445689
H       -0.7522818079    0.5720383153   -0.1490790452
H        0.0666223075   -2.2593978301   -1.6469931887
C        0.5073607042    1.3891653555    1.4078975914
N        0.9827703690    1.9892376178    2.2780080648
6    
Image 5/11, Energy =  -169.0252222562 (+16.972 kcal/mol)
C       -0.2626049312   -1.3066024021   -1.1762835412
C       -0.5771351370   -0.2453988355   -0.6523099608
H       -0.9968515285    0.6668341361   -0.2907940144
H        0.2491025350   -2.2071134693   -1.4390627373
C        0.4951540390    1.3592441185    1.3235036838
N        1.0923350206    1.7330364533    2.2349465718
6    
Image 6/11, Energy =  -169.0160202134 (+22.747 kcal/mol)
C       -0.2497984216   -1.2460594919   -1.0820638665
C       -0.6183687978   -0.1734767290   -0.6661396599
H       -1.1907604850    0.7182987261   -0.3897533989
H        0.4038117156   -2.1125948121   -1.2522762569
C        0.5020902794    1.3079472697    1.2345244663
N        1.1530257091    1.5058850321    2.1557087158
6    
Image 7/11, Energy =  -169.0050875078 (+29.607 kcal/mol)
C       -0.2418817063   -1.1846683883   -0.9856933100
C       -0.6391158912   -0.1053316913   -0.6058875648
H       -1.2852485379    0.7735351203   -0.5008977884
H        0.5198785580   -1.9779518154   -1.0675120461
C        0.4857083768    1.2260078818    1.1192472617
N        1.1606592058    1.2684088890    2.0407434436
6    
Image 8/11, Energy =  -168.9892529719 (+39.543 kcal/mol)
C       -0.2528547356   -1.1272151127   -0.8895821309
C       -0.6187741702   -0.0025870682   -0.5064315245
H       -1.3329494198    0.8205879770   -0.5999805575
H        0.6232364396   -1.8000443041   -0.8589415333
C        0.4492967775    1.0866375329    0.9728882911
N        1.1320451069    1.0226209785    1.8820474537
6    
Image 9/11, Energy =  -169.0143713228 (+23.781 kcal/mol)
C       -0.2767796631   -1.0962201558   -0.8952199379
C       -0.5294402254    0.1236344703   -0.3761665289
H       -1.3138839494    0.8428925941   -0.6408245525
H        0.6626815585   -1.6450864053   -0.6672114569
C        0.3748290238    0.8429021307    0.8436206499
N        1.0825932540    0.9318773655    1.7358018254
6    
Image 10/11, Energy =  -169.0437609544 (+5.339 kcal/mol)
C       -0.2721093513   -1.0384613434   -0.9953339881
C       -0.4664498990    0.1336943575   -0.3047184047
H       -1.3026915424    0.8069996864   -0.5503883163
H        0.6404231461   -1.5232274468   -0.5526624607
C        0.3524169885    0.6272448767    0.7650856657
N        1.0484106581    0.9937498643    1.6380174988
