6    
Image 0/11, Energy =  -169.0522692293 (+0.811 kcal/mol)
C       -0.3689809232   -1.4576547332   -1.3858823910
C       -0.1536196575   -0.5941379364   -0.5627748996
H        0.0498937432    0.2058682499    0.1931202386
H       -0.5557149982   -2.2230003307   -2.1042277546
C        0.4068909404    1.6172446315    1.5286738868
N        0.6215308952    2.4516801189    2.3310909145
6    
Image 1/11, Energy =  -169.0535614709 (+0.000 kcal/mol)
C       -0.3542540035   -1.4791973164   -1.3906648927
C       -0.2640945629   -0.5632818553   -0.6217260673
H       -0.1383102711    0.2431137644    0.0886391983
H       -0.4176315524   -2.2892170956   -2.0581317953
C        0.3798810816    1.6907834541    1.5737237197
N        0.7944093413    2.3977991204    2.4081597905
6    
Image 2/11, Energy =  -169.0521427627 (+0.890 kcal/mol)
C       -0.3286735707   -1.4696032093   -1.3632570777
C       -0.3523328687   -0.5116641699   -0.6426190690
H       -0.2993399837    0.3262751574    0.0372701209
H       -0.2825131936   -2.3168713832   -1.9845571440
C        0.3254533878    1.7216095617    1.5539608440
N        0.9374064488    2.2502537891    2.3992024223
6    
Image 3/11, Energy =  -169.0501844425 (+2.119 kcal/mol)
C       -0.3036490589   -1.4490193062   -1.3242438067
C       -0.4247958560   -0.4531716977   -0.6681363742
H       -0.4352532978    0.4128291717   -0.0275518541
H       -0.1645115921   -2.3303563210   -1.8797821049
C        0.2958400135    1.7385895317    1.5287127050
N        1.0323698726    2.0811284034    2.3710013791
6    
Image 4/11, Energy =  -169.0461331299 (+4.661 kcal/mol)
C       -0.2638857229   -1.4029655741   -1.2444765740
C       -0.5273536358   -0.3662304944   -0.7058186745
H       -0.6426328264    0.5393680118   -0.1459105678
H        0.0120615117   -2.3169179398   -1.6835318682
C        0.2796141170    1.7599553201    1.4939265406
N        1.1421965589    1.7867903804    2.2858112734
6    
Image 5/11, Energy =  -169.0410406666 (+7.857 kcal/mol)
C       -0.2247142508   -1.3386542184   -1.1472704537
C       -0.6266466111   -0.2862224103   -0.7447296155
H       -0.8609813176    0.6460873261   -0.2903786389
H        0.1826232374   -2.2578882298   -1.4518470561
C        0.3127999596    1.7495951743    1.4683010764
N        1.2169189768    1.4870823819    2.1659247523
6    
Image 6/11, Energy =  -169.0356475020 (+11.241 kcal/mol)
C       -0.1934630774   -1.2572704293   -1.0487024184
C       -0.7222487193   -0.2166307943   -0.7925038180
H       -1.0781872483    0.7211099645   -0.4585321463
H        0.3330528800   -2.1519214398   -1.2083778590
C        0.3801919682    1.6629523462    1.4428837158
N        1.2806541908    1.2417602875    2.0652324695
6    
Image 7/11, Energy =  -169.0298244781 (+14.895 kcal/mol)
C       -0.1735522831   -1.1604542623   -0.9687052037
C       -0.7955905721   -0.1509583747   -0.8277721063
H       -1.2500274112    0.7712472425   -0.5974194799
H        0.4576260318   -1.9995129000   -0.9831443036
C        0.4143717774    1.4302601248    1.3714691669
N        1.3471724259    1.1094179484    2.0055718846
6    
Image 8/11, Energy =  -169.0163434563 (+23.355 kcal/mol)
C       -0.1893750361   -1.1090901346   -0.9555196738
C       -0.7624474407   -0.0774414546   -0.7500655745
H       -1.3025815408    0.8096340747   -0.6146816486
H        0.5288389592   -1.8641657581   -0.8356478090
C        0.4181009465    1.1357911460    1.1984843536
N        1.3074637802    1.1052719169    1.9574304974
6    
Image 9/11, Energy =  -168.9961821267 (+36.006 kcal/mol)
C       -0.2591225491   -1.1009583635   -1.0115848886
C       -0.6111617939    0.0155933997   -0.5443443980
H       -1.3031183160    0.8092680341   -0.6157754098
H        0.5432571183   -1.7541794375   -0.7424016457
C        0.4391188691    0.8927957438    1.0283984179
N        1.1910262316    1.1374804779    1.8857080670
6    
Image 10/11, Energy =  -169.0437609544 (+6.150 kcal/mol)
C       -0.2721093513   -1.0384613434   -0.9953339881
C       -0.4664498990    0.1336943575   -0.3047184047
H       -1.3026915424    0.8069996864   -0.5503883163
H        0.6404231461   -1.5232274468   -0.5526624607
C        0.3524169885    0.6272448767    0.7650856657
N        1.0484106581    0.9937498643    1.6380174988
