6    
Image 0/11, Energy =  -169.0522692293 (+0.398 kcal/mol)
C       -0.3689809232   -1.4576547332   -1.3858823910
C       -0.1536196575   -0.5941379364   -0.5627748996
H        0.0498937432    0.2058682499    0.1931202386
H       -0.5557149982   -2.2230003307   -2.1042277546
C        0.4068909404    1.6172446315    1.5286738868
N        0.6215308952    2.4516801189    2.3310909145
6    
Image 1/11, Energy =  -169.0529040220 (+0.000 kcal/mol)
C       -0.3438331614   -1.4592283344   -1.3595192786
C       -0.2646688322   -0.5258582222   -0.6110799502
H       -0.1456145170    0.2959884903    0.0878717371
H       -0.3961399380   -2.2833084905   -2.0080637732
C        0.3502939844    1.6668567236    1.5113112981
N        0.7999624478    2.3055498801    2.3794801013
6    
Image 2/11, Energy =  -169.0507910455 (+1.326 kcal/mol)
C       -0.3136167413   -1.4433538717   -1.3189922015
C       -0.3743895192   -0.4500923143   -0.6519202023
H       -0.3376629020    0.4102579538   -0.0000712135
H       -0.2302113722   -2.3217256683   -1.8859063419
C        0.3051072042    1.6964248931    1.4871394384
N        0.9507733163    2.1084889666    2.3697504600
6    
Image 3/11, Energy =  -169.0474573220 (+3.418 kcal/mol)
C       -0.2794741211   -1.4077064569   -1.2612029590
C       -0.4823869191   -0.3739970212   -0.6919515647
H       -0.5364351992    0.5189017775   -0.0970500097
H       -0.0579032871   -2.3195207811   -1.7288254058
C        0.2864113960    1.6968738694    1.4655894920
N        1.0697881525    1.8854486232    2.3134402920
6    
Image 4/11, Energy =  -169.0430237373 (+6.200 kcal/mol)
C       -0.2426926301   -1.3545234756   -1.1898474947
C       -0.5861123678   -0.3034922671   -0.7328882457
H       -0.7432369731    0.6136762361   -0.2106547005
H        0.1131090470   -2.2750180635   -1.5427562203
C        0.2983484136    1.6554413721    1.4423606208
N        1.1605843986    1.6639161752    2.2337858381
6    
Image 5/11, Energy =  -169.0374750772 (+9.682 kcal/mol)
C       -0.2077927753   -1.2832590119   -1.1080628668
C       -0.6793959140   -0.2387258796   -0.7690500703
H       -0.9525723813    0.6908379317   -0.3401112583
H        0.2758144157   -2.1852802783   -1.3318884561
C        0.3342720571    1.5545881537    1.3998100198
N        1.2296745575    1.4618391135    2.1493024835
6    
Image 6/11, Energy =  -169.0296833949 (+14.571 kcal/mol)
C       -0.1858772413   -1.1974044489   -1.0249004678
C       -0.7457086144   -0.1716448993   -0.7784504899
H       -1.1432444976    0.7511160803   -0.4655865174
H        0.4227625927   -2.0457381223   -1.1018644790
C        0.3824307571    1.3752805208    1.3055833677
N        1.2696369407    1.2883908870    2.0652185951
6    
Image 7/11, Energy =  -169.0138365274 (+24.515 kcal/mol)
C       -0.2011702073   -1.1310696494   -0.9896271512
C       -0.7294790930   -0.0897193660   -0.7076620124
H       -1.2774209698    0.7869046699   -0.5596837552
H        0.5259862157   -1.8789859647   -0.8903384944
C        0.4232557254    1.1289973767    1.1661181872
N        1.2588282131    1.1838727922    1.9811932696
6    
Image 8/11, Energy =  -168.9961774007 (+35.596 kcal/mol)
C       -0.2504077269   -1.1026246317   -1.0116465776
C       -0.6169741653    0.0073778973   -0.5403119470
H       -1.3248939833    0.7883303708   -0.6013570476
H        0.5686218692   -1.7399189019   -0.7533989218
C        0.4404996490    0.9005071392    1.0207446642
N        1.1831542250    1.1463279963    1.8859699147
6    
Image 9/11, Energy =  -169.0167556649 (+22.683 kcal/mol)
C       -0.2705570567   -1.0735665553   -1.0106195260
C       -0.5088423005    0.0878771750   -0.3873241339
H       -1.3085981930    0.7818401012   -0.5896811652
H        0.5834271745   -1.6879069023   -0.7048362646
C        0.4009583274    0.7806829408    0.9089297543
N        1.1036119258    1.1110731202    1.7835314393
6    
Image 10/11, Energy =  -169.0437609544 (+5.737 kcal/mol)
C       -0.2721093513   -1.0384613434   -0.9953339881
C       -0.4664498990    0.1336943575   -0.3047184047
H       -1.3026915424    0.8069996864   -0.5503883163
H        0.6404231461   -1.5232274468   -0.5526624607
C        0.3524169885    0.6272448767    0.7650856657
N        1.0484106581    0.9937498643    1.6380174988
