6    
Image 0/11, Energy =  -169.0522692293 (+0.292 kcal/mol)
C       -0.3689809232   -1.4576547332   -1.3858823910
C       -0.1536196575   -0.5941379364   -0.5627748996
H        0.0498937432    0.2058682499    0.1931202386
H       -0.5557149982   -2.2230003307   -2.1042277546
C        0.4068909404    1.6172446315    1.5286738868
N        0.6215308952    2.4516801189    2.3310909145
6    
Image 1/11, Energy =  -169.0527348734 (+0.000 kcal/mol)
C       -0.3442102144   -1.4537774207   -1.3573634496
C       -0.2706870541   -0.5226931540   -0.6064292467
H       -0.1462787923    0.2969682349    0.0967821992
H       -0.3900151815   -2.2769171295   -2.0070988169
C        0.3684867688    1.6452555435    1.5049521046
N        0.7827044764    2.3111639578    2.3691572304
6    
Image 2/11, Energy =  -169.0505817342 (+1.351 kcal/mol)
C       -0.3152553260   -1.4390148314   -1.3181049365
C       -0.3852045322   -0.4494076349   -0.6476959716
H       -0.3407169085    0.4054617820    0.0106695499
H       -0.2209818367   -2.3120656238   -1.8887491191
C        0.3371251436    1.6622351824    1.4758410819
N        0.9250334234    2.1327911982    2.3680394110
6    
Image 3/11, Energy =  -169.0472608466 (+3.435 kcal/mol)
C       -0.2831688964   -1.4074829743   -1.2639909441
C       -0.4937882305   -0.3797668584   -0.6883290613
H       -0.5368037488    0.5059548546   -0.0832364227
H       -0.0526731290   -2.3095053112   -1.7418202987
C        0.3286224690    1.6529104138    1.4463713024
N        1.0378115464    1.9378899887    2.3310054487
6    
Image 4/11, Energy =  -169.0426857834 (+6.306 kcal/mol)
C       -0.2488404326   -1.3565111846   -1.1965550899
C       -0.5950685120   -0.3134224862   -0.7256300606
H       -0.7376042181    0.5969264427   -0.1897957619
H        0.1134201194   -2.2661471625   -1.5638081881
C        0.3431919234    1.6039438391    1.4072866748
N        1.1249011026    1.7352106140    2.2685024005
6    
Image 5/11, Energy =  -169.0366898359 (+10.068 kcal/mol)
C       -0.2165727087   -1.2867169908   -1.1180137344
C       -0.6811944639   -0.2481896610   -0.7536741373
H       -0.9385068919    0.6762909471   -0.3081008397
H        0.2724628249   -2.1790062102   -1.3576086834
C        0.3743718937    1.5022886468    1.3492712568
N        1.1894393296    1.5353333755    2.1881260671
6    
Image 6/11, Energy =  -169.0280602863 (+15.484 kcal/mol)
C       -0.1972115089   -1.2071775231   -1.0419495465
C       -0.7319157719   -0.1799452313   -0.7513087554
H       -1.1230364146    0.7378641077   -0.4251903961
H        0.4137413241   -2.0490891284   -1.1393540249
C        0.4107612889    1.3355091888    1.2595350893
N        1.2276610560    1.3628387719    2.0982675765
6    
Image 7/11, Energy =  -169.0120638325 (+25.521 kcal/mol)
C       -0.2104108536   -1.1429878507   -1.0045784808
C       -0.7106255065   -0.0981164916   -0.6799062868
H       -1.2608466422    0.7731931456   -0.5220794452
H        0.5172701338   -1.8928781856   -0.9365225469
C        0.4422401671    1.1175841206    1.1413989549
N        1.2223726343    1.2432054201    2.0016877037
6    
Image 8/11, Energy =  -168.9962095799 (+35.470 kcal/mol)
C       -0.2521019788   -1.1071225882   -1.0124977123
C       -0.6147169085    0.0007661855   -0.5348184061
H       -1.3285273871    0.7771610506   -0.5801572646
H        0.5733091582   -1.7452323251   -0.7799517282
C        0.4535628949    0.9029219771    1.0129924518
N        1.1684741816    1.1715058664    1.8944325132
6    
Image 9/11, Energy =  -169.0185482367 (+21.452 kcal/mol)
C       -0.2719627220   -1.0757314906   -1.0098527896
C       -0.5069208529    0.0856170831   -0.3812100868
H       -1.3135117808    0.7752544816   -0.5708756611
H        0.5941011692   -1.6770998350   -0.7120047022
C        0.4053045038    0.7756590956    0.8955908692
N        1.0929896319    1.1163007495    1.7783522509
6    
Image 10/11, Energy =  -169.0437609544 (+5.631 kcal/mol)
C       -0.2721093513   -1.0384613434   -0.9953339881
C       -0.4664498990    0.1336943575   -0.3047184047
H       -1.3026915424    0.8069996864   -0.5503883163
H        0.6404231461   -1.5232274468   -0.5526624607
C        0.3524169885    0.6272448767    0.7650856657
N        1.0484106581    0.9937498643    1.6380174988
