6    
Image 0/11, Energy =  -169.0522692293 (+0.811 kcal/mol)
C       -0.3689809232   -1.4576547332   -1.3858823910
C       -0.1536196575   -0.5941379364   -0.5627748996
H        0.0498937432    0.2058682499    0.1931202386
H       -0.5557149982   -2.2230003307   -2.1042277546
C        0.4068909404    1.6172446315    1.5286738868
N        0.6215308952    2.4516801189    2.3310909145
6    
Image 1/11, Energy =  -169.0535614709 (+0.000 kcal/mol)
C       -0.3542540035   -1.4791973164   -1.3906648927
C       -0.2640945629   -0.5632818553   -0.6217260673
H       -0.1383102711    0.2431137644    0.0886391983
H       -0.4176315524   -2.2892170956   -2.0581317953
C        0.3798810816    1.6907834541    1.5737237197
N        0.7944093413    2.3977991204    2.4081597905
6    
Image 2/11, Energy =  -169.0521427627 (+0.890 kcal/mol)
C       -0.3286735707   -1.4696032093   -1.3632570777
C       -0.3523328687   -0.5116641699   -0.6426190690
H       -0.2993399837    0.3262751574    0.0372701209
H       -0.2825131936   -2.3168713832   -1.9845571440
C        0.3254533878    1.7216095617    1.5539608440
N        0.9374064488    2.2502537891    2.3992024223
6    
Image 3/11, Energy =  -169.0501844425 (+2.119 kcal/mol)
C       -0.3036490589   -1.4490193062   -1.3242438067
C       -0.4247958560   -0.4531716977   -0.6681363742
H       -0.4352532978    0.4128291717   -0.0275518541
H       -0.1645115921   -2.3303563210   -1.8797821049
C        0.2958400135    1.7385895317    1.5287127050
N        1.0323698726    2.0811284034    2.3710013791
6    
Image 4/11, Energy =  -169.0461400077 (+4.657 kcal/mol)
C       -0.2641413900   -1.4027088192   -1.2441224734
C       -0.5260637716   -0.3657360153   -0.7050802182
H       -0.6407356549    0.5400806912   -0.1452564236
H        0.0109188437   -2.3169923397   -1.6830489218
C        0.2783486715    1.7606903220    1.4934105533
N        1.1416733104    1.7846658587    2.2840976160
6    
Image 5/11, Energy =  -169.0410507553 (+7.851 kcal/mol)
C       -0.2247503480   -1.3384132312   -1.1465884622
C       -0.6256792254   -0.2853909077   -0.7445041656
H       -0.8584202634    0.6471076084   -0.2896782563
H        0.1809785060   -2.2582316834   -1.4513365684
C        0.3113785289    1.7499344263    1.4685690897
N        1.2164927979    1.4849938191    2.1635384299
6    
Image 6/11, Energy =  -169.0356519780 (+11.238 kcal/mol)
C       -0.1936758747   -1.2569623529   -1.0487821600
C       -0.7219149621   -0.2161185099   -0.7928010898
H       -1.0767673022    0.7220391571   -0.4585802745
H        0.3319905314   -2.1522298337   -1.2081380823
C        0.3789177555    1.6611267864    1.4439314303
N        1.2814498375    1.2421446695    2.0643701211
6    
Image 7/11, Energy =  -169.0298432461 (+14.883 kcal/mol)
C       -0.1739075160   -1.1609775821   -0.9700568065
C       -0.7946413963   -0.1509753614   -0.8278173361
H       -1.2480447515    0.7714195038   -0.5960611602
H        0.4563314146   -2.0007306317   -0.9854042973
C        0.4125259117    1.4275725319    1.3729769245
N        1.3477362917    1.1136913213    2.0063626298
6    
Image 8/11, Energy =  -169.0163372398 (+23.359 kcal/mol)
C       -0.1897975196   -1.1096993128   -0.9566826560
C       -0.7621126864   -0.0778226501   -0.7499592760
H       -1.3011628867    0.8097107339   -0.6134840445
H        0.5278194777   -1.8653413706   -0.8371021461
C        0.4184939951    1.1349951157    1.1984693672
N        1.3067592632    1.1081572756    1.9587588989
6    
Image 9/11, Energy =  -168.9961821267 (+36.006 kcal/mol)
C       -0.2591225491   -1.1009583635   -1.0115848886
C       -0.6111617939    0.0155933997   -0.5443443980
H       -1.3031183160    0.8092680341   -0.6157754098
H        0.5432571183   -1.7541794375   -0.7424016457
C        0.4391188691    0.8927957438    1.0283984179
N        1.1910262316    1.1374804779    1.8857080670
6    
Image 10/11, Energy =  -169.0437609544 (+6.150 kcal/mol)
C       -0.2721093513   -1.0384613434   -0.9953339881
C       -0.4664498990    0.1336943575   -0.3047184047
H       -1.3026915424    0.8069996864   -0.5503883163
H        0.6404231461   -1.5232274468   -0.5526624607
C        0.3524169885    0.6272448767    0.7650856657
N        1.0484106581    0.9937498643    1.6380174988
