6    
Image 0/11, Energy =  -169.0522692293 (+0.115 kcal/mol)
C       -0.3689809232   -1.4576547332   -1.3858823910
C       -0.1536196575   -0.5941379364   -0.5627748996
H        0.0498937432    0.2058682499    0.1931202386
H       -0.5557149982   -2.2230003307   -2.1042277546
C        0.4068909404    1.6172446315    1.5286738868
N        0.6215308952    2.4516801189    2.3310909145
6    
Image 1/11, Energy =  -169.0524519443 (+0.000 kcal/mol)
C       -0.3503757681   -1.4493449075   -1.3688324565
C       -0.2768045611   -0.5251474570   -0.6064096349
H       -0.1339519043    0.2751443914    0.1215849395
H       -0.4012272037   -2.2652366712   -2.0257445574
C        0.4366573186    1.5800556733    1.5413765495
N        0.7257021097    2.3845289609    2.3380251518
6    
Image 2/11, Energy =  -169.0496357964 (+1.767 kcal/mol)
C       -0.3291237628   -1.4341840728   -1.3368400412
C       -0.3952168530   -0.4581061761   -0.6459657344
H       -0.3203456681    0.3642044163    0.0545123615
H       -0.2405162804   -2.2916502332   -1.9305615753
C        0.4573727060    1.5334215174    1.5221448845
N        0.8278298797    2.2863145353    2.3367100970
6    
Image 3/11, Energy =  -169.0457028910 (+4.235 kcal/mol)
C       -0.2973249542   -1.4105420599   -1.2852171851
C       -0.5082106190   -0.3940883806   -0.6880646753
H       -0.5164732748    0.4612074118   -0.0366127505
H       -0.0783104283   -2.2916483274   -1.8019367026
C        0.4659738144    1.4901314913    1.4814286721
N        0.9343454505    2.1449398702    2.3304026376
6    
Image 4/11, Energy =  -169.0409807855 (+7.198 kcal/mol)
C       -0.2574992518   -1.3653548638   -1.2190927192
C       -0.6119025808   -0.3396956055   -0.7219998180
H       -0.7278128152    0.5536205593   -0.1449342910
H        0.0853417227   -2.2592688289   -1.6405153280
C        0.4749297945    1.4512331400    1.4182576990
N        1.0369431259    1.9594655836    2.3082844549
6    
Image 5/11, Energy =  -169.0358557400 (+10.414 kcal/mol)
C       -0.2169973676   -1.3055170960   -1.1354122496
C       -0.6943324113   -0.2787857809   -0.7418342059
H       -0.9266744772    0.6387876441   -0.2649837250
H        0.2398318893   -2.1929050269   -1.4489456821
C        0.4759177735    1.4167359436    1.3323371210
N        1.1222546212    1.7216843156    2.2588387276
6    
Image 6/11, Energy =  -169.0294723854 (+14.420 kcal/mol)
C       -0.1902026647   -1.2285729305   -1.0398357946
C       -0.7431198469   -0.2117864956   -0.7403531170
H       -1.1046224938    0.7157708373   -0.3877565736
H        0.3861354248   -2.0852247094   -1.2280376368
C        0.4770585517    1.3569584484    1.2302511048
N        1.1747510165    1.4528548355    2.1657320041
6    
Image 7/11, Energy =  -169.0170562178 (+22.211 kcal/mol)
C       -0.1924616817   -1.1534217650   -0.9757454480
C       -0.7283871878   -0.1249109413   -0.6834729877
H       -1.2432371642    0.7700058601   -0.4934018703
H        0.5060333984   -1.9386277361   -0.9957648919
C        0.4740626770    1.2252872459    1.1093841657
N        1.1839899773    1.2216673390    2.0390010066
6    
Image 8/11, Energy =  -168.9967399441 (+34.960 kcal/mol)
C       -0.2291214997   -1.1125551203   -0.9746753848
C       -0.6285979779   -0.0149386473   -0.5506970673
H       -1.3104275183    0.7789868837   -0.5516106038
H        0.5653274076   -1.8006566641   -0.8325838717
C        0.4535048040    1.0246842692    0.9888722296
N        1.1493148080    1.1244792756    1.9206946640
6    
Image 9/11, Energy =  -169.0148278178 (+23.609 kcal/mol)
C       -0.2674191801   -1.0793191869   -0.9903389369
C       -0.5041822659    0.0878642273   -0.3841073221
H       -1.3119233569    0.7778796746   -0.5580152909
H        0.5961529347   -1.7110827694   -0.7410991170
C        0.4055296824    0.8320703688    0.8782192264
N        1.0818422027    1.0925876838    1.7953414190
6    
Image 10/11, Energy =  -169.0437609544 (+5.454 kcal/mol)
C       -0.2721093513   -1.0384613434   -0.9953339881
C       -0.4664498990    0.1336943575   -0.3047184047
H       -1.3026915424    0.8069996864   -0.5503883163
H        0.6404231461   -1.5232274468   -0.5526624607
C        0.3524169885    0.6272448767    0.7650856657
N        1.0484106581    0.9937498643    1.6380174988
