6    
Image 0/11, Energy =  -169.0522692293 (+0.180 kcal/mol)
C       -0.3689809232   -1.4576547332   -1.3858823910
C       -0.1536196575   -0.5941379364   -0.5627748996
H        0.0498937432    0.2058682499    0.1931202386
H       -0.5557149982   -2.2230003307   -2.1042277546
C        0.4068909404    1.6172446315    1.5286738868
N        0.6215308952    2.4516801189    2.3310909145
6    
Image 1/11, Energy =  -169.0525562894 (+0.000 kcal/mol)
C       -0.3498935281   -1.4467056137   -1.3694910228
C       -0.2794505870   -0.5279942178   -0.6015673761
H       -0.1333306066    0.2744822150    0.1157556935
H       -0.3983378755   -2.2662392255   -2.0238505240
C        0.4276315262    1.5892713893    1.5368620850
N        0.7333810691    2.3771854490    2.3422911185
6    
Image 2/11, Energy =  -169.0499259136 (+1.651 kcal/mol)
C       -0.3258764999   -1.4323396243   -1.3397990483
C       -0.3999402357   -0.4614101749   -0.6419297120
H       -0.3206326660    0.3677212355    0.0440775883
H       -0.2374014653   -2.2960550687   -1.9250855074
C        0.4406818256    1.5513782825    1.5175485645
N        0.8431690613    2.2707053446    2.3451881006
6    
Image 3/11, Energy =  -169.0461678956 (+4.009 kcal/mol)
C       -0.2976037846   -1.4070179525   -1.2913117657
C       -0.5099976007   -0.3974030861   -0.6846973751
H       -0.5190604663    0.4622909833   -0.0430539125
H       -0.0733370788   -2.2970477684   -1.7952981939
C        0.4499078525    1.5136506502    1.4769466029
N        0.9500910783    2.1255271752    2.3374146360
6    
Image 4/11, Energy =  -169.0415483810 (+6.908 kcal/mol)
C       -0.2640074812   -1.3666461285   -1.2252899899
C       -0.6079696739   -0.3382293775   -0.7180459269
H       -0.7249238016    0.5535239716   -0.1508556759
H        0.0898794324   -2.2623035395   -1.6333756387
C        0.4574981704    1.4764111682    1.4161296583
N        1.0495233525    1.9372439013    2.3114375714
6    
Image 5/11, Energy =  -169.0363101289 (+10.195 kcal/mol)
C       -0.2284202710   -1.3066946084   -1.1412744051
C       -0.6872278901   -0.2799437165   -0.7412616849
H       -0.9215917890    0.6352425262   -0.2690637173
H        0.2436562430   -2.1895099391   -1.4400121269
C        0.4637397778    1.4369285934    1.3345878545
N        1.1298439212    1.7039771537    2.2570240506
6    
Image 6/11, Energy =  -169.0296515284 (+14.373 kcal/mol)
C       -0.1984894457   -1.2304935313   -1.0487153293
C       -0.7375925377   -0.2103010794   -0.7433857331
H       -1.0978149165    0.7077699298   -0.3881733292
H        0.3849661893   -2.0781335019   -1.2168620936
C        0.4700472337    1.3673698629    1.2348426063
N        1.1788834758    1.4437882988    2.1622938710
6    
Image 7/11, Energy =  -169.0168072292 (+22.433 kcal/mol)
C       -0.1959227630   -1.1560782935   -0.9851213702
C       -0.7238559971   -0.1218193743   -0.6886892581
H       -1.2382265447    0.7603937164   -0.4899837135
H        0.4992049303   -1.9333562347   -0.9919412801
C        0.4718638391    1.2182406013    1.1154230084
N        1.1869365595    1.2326195831    2.0403125885
6    
Image 8/11, Energy =  -168.9964882097 (+35.183 kcal/mol)
C       -0.2329180881   -1.1083902501   -0.9772561722
C       -0.6250667310   -0.0119236446   -0.5526417512
H       -1.3178241866    0.7770280440   -0.5546695899
H        0.5676185138   -1.7865815384   -0.8198836661
C        0.4569743740    0.9993286080    0.9884306375
N        1.1512161454    1.1305388170    1.9160205116
6    
Image 9/11, Energy =  -169.0133238616 (+24.619 kcal/mol)
C       -0.2642048454   -1.0815957803   -0.9902628935
C       -0.5115334427    0.0826477658   -0.3949665461
H       -1.3110552541    0.7791908840   -0.5589101054
H        0.5929177503   -1.7070341593   -0.7387655447
C        0.4085476631    0.8286888334    0.8843802374
N        1.0853281503    1.0981024557    1.7985248101
6    
Image 10/11, Energy =  -169.0437609544 (+5.519 kcal/mol)
C       -0.2721093513   -1.0384613434   -0.9953339881
C       -0.4664498990    0.1336943575   -0.3047184047
H       -1.3026915424    0.8069996864   -0.5503883163
H        0.6404231461   -1.5232274468   -0.5526624607
C        0.3524169885    0.6272448767    0.7650856657
N        1.0484106581    0.9937498643    1.6380174988
