6    
Image 0/11, Energy =  -169.0522692293 (+0.278 kcal/mol)
C       -0.3689809232   -1.4576547332   -1.3858823910
C       -0.1536196575   -0.5941379364   -0.5627748996
H        0.0498937432    0.2058682499    0.1931202386
H       -0.5557149982   -2.2230003307   -2.1042277546
C        0.4068909404    1.6172446315    1.5286738868
N        0.6215308952    2.4516801189    2.3310909145
6    
Image 1/11, Energy =  -169.0527118477 (+0.000 kcal/mol)
C       -0.3433672364   -1.4536101249   -1.3568276340
C       -0.2706335065   -0.5213454856   -0.6062031427
H       -0.1467921584    0.2987756440    0.0956754198
H       -0.3895912015   -2.2772555924   -2.0049976328
C        0.3658356796    1.6460074287    1.5030622243
N        0.7845484119    2.3074281630    2.3692907877
6    
Image 2/11, Energy =  -169.0505400581 (+1.363 kcal/mol)
C       -0.3141431798   -1.4382999357   -1.3170333235
C       -0.3852975177   -0.4478710240   -0.6474470415
H       -0.3415303826    0.4079033437    0.0090456491
H       -0.2202004845   -2.3121251820   -1.8857975806
C        0.3340866413    1.6630138556    1.4741776338
N        0.9270848887    2.1273790097    2.3670547019
6    
Image 3/11, Energy =  -169.0471871353 (+3.467 kcal/mol)
C       -0.2817675550   -1.4057026580   -1.2624493377
C       -0.4942477083   -0.3777391325   -0.6882061481
H       -0.5385392873    0.5096429293   -0.0856774962
H       -0.0509026550   -2.3093993731   -1.7370442794
C        0.3251806403    1.6537594859    1.4453678305
N        1.0402765633    1.9294388651    2.3280094534
6    
Image 4/11, Energy =  -169.0425781878 (+6.359 kcal/mol)
C       -0.2474121323   -1.3542673839   -1.1940164748
C       -0.5956928787   -0.3107651749   -0.7262221942
H       -0.7405752895    0.6009060702   -0.1928307401
H        0.1161615319   -2.2651197340   -1.5579493371
C        0.3400099549    1.6034135573    1.4073736052
N        1.1275087954    1.7258327387    2.2636451127
6    
Image 5/11, Energy =  -169.0365700430 (+10.129 kcal/mol)
C       -0.2150878769   -1.2845087106   -1.1150005850
C       -0.6815046226   -0.2457947642   -0.7543517144
H       -0.9413115528    0.6790848618   -0.3108742897
H        0.2748150413   -2.1770334982   -1.3527312963
C        0.3709180016    1.4996628117    1.3495645336
N        1.1921709915    1.5285894150    2.1833932722
6    
Image 6/11, Energy =  -169.0279844063 (+15.517 kcal/mol)
C       -0.1958468023   -1.2054941899   -1.0399240703
C       -0.7324072334   -0.1784538733   -0.7520571800
H       -1.1245567965    0.7393860042   -0.4274344856
H        0.4148661298   -2.0476739604   -1.1365327709
C        0.4083651242    1.3323342423    1.2614214750
N        1.2295795524    1.3599019671    2.0945269790
6    
Image 7/11, Energy =  -169.0120415345 (+25.521 kcal/mol)
C       -0.2100402701   -1.1423422618   -1.0045570792
C       -0.7109653751   -0.0973861959   -0.6806438786
H       -1.2616308222    0.7736039078   -0.5236735958
H        0.5174111719   -1.8921362494   -0.9349630611
C        0.4411944441    1.1151112192    1.1435157194
N        1.2240307811    1.2431497415    2.0003217826
6    
Image 8/11, Energy =  -168.9962095799 (+35.456 kcal/mol)
C       -0.2521019788   -1.1071225882   -1.0124977123
C       -0.6147169085    0.0007661855   -0.5348184061
H       -1.3285273871    0.7771610506   -0.5801572646
H        0.5733091582   -1.7452323251   -0.7799517282
C        0.4535628949    0.9029219771    1.0129924518
N        1.1684741816    1.1715058664    1.8944325132
6    
Image 9/11, Energy =  -169.0185482367 (+21.438 kcal/mol)
C       -0.2719627220   -1.0757314906   -1.0098527896
C       -0.5069208529    0.0856170831   -0.3812100868
H       -1.3135117808    0.7752544816   -0.5708756611
H        0.5941011692   -1.6770998350   -0.7120047022
C        0.4053045038    0.7756590956    0.8955908692
N        1.0929896319    1.1163007495    1.7783522509
6    
Image 10/11, Energy =  -169.0437609544 (+5.617 kcal/mol)
C       -0.2721093513   -1.0384613434   -0.9953339881
C       -0.4664498990    0.1336943575   -0.3047184047
H       -1.3026915424    0.8069996864   -0.5503883163
H        0.6404231461   -1.5232274468   -0.5526624607
C        0.3524169885    0.6272448767    0.7650856657
N        1.0484106581    0.9937498643    1.6380174988
