6    
Image 0/11, Energy =  -169.0522692293 (+0.350 kcal/mol)
C       -0.3689809232   -1.4576547332   -1.3858823910
C       -0.1536196575   -0.5941379364   -0.5627748996
H        0.0498937432    0.2058682499    0.1931202386
H       -0.5557149982   -2.2230003307   -2.1042277546
C        0.4068909404    1.6172446315    1.5286738868
N        0.6215308952    2.4516801189    2.3310909145
6    
Image 1/11, Energy =  -169.0528264355 (+0.000 kcal/mol)
C       -0.3467092216   -1.4527264731   -1.3651506924
C       -0.2757329395   -0.5277898539   -0.6045747875
H       -0.1429450711    0.2860788885    0.1028637017
H       -0.3915300980   -2.2753289796   -2.0156779765
C        0.3858752585    1.6333982463    1.5165259282
N        0.7710420880    2.3363682146    2.3660138559
6    
Image 2/11, Energy =  -169.0507509014 (+1.302 kcal/mol)
C       -0.3221871727   -1.4398251563   -1.3322852303
C       -0.3944948412   -0.4604994238   -0.6468029739
H       -0.3343346214    0.3845972957    0.0234169973
H       -0.2240148387   -2.3097242983   -1.9085286346
C        0.3706893355    1.6373306943    1.4918009611
N        0.9043421430    2.1881209188    2.3723988849
6    
Image 3/11, Energy =  -169.0474994169 (+3.343 kcal/mol)
C       -0.2943052787   -1.4128396662   -1.2821544485
C       -0.5030509082   -0.3947050135   -0.6904071005
H       -0.5260369638    0.4798449027   -0.0658547255
H       -0.0590103084   -2.3100275086   -1.7702499489
C        0.3674899638    1.6266276714    1.4582686346
N        1.0149135016    2.0110996825    2.3503975590
6    
Image 4/11, Energy =  -169.0431342313 (+6.082 kcal/mol)
C       -0.2611519524   -1.3685074439   -1.2179090441
C       -0.6010960324   -0.3321430313   -0.7255084304
H       -0.7201090536    0.5691413277   -0.1681310158
H        0.1011973788   -2.2721598915   -1.6011280689
C        0.3794284061    1.5900420246    1.4114393430
N        1.1017312611    1.8136270678    2.3012372119
6    
Image 5/11, Energy =  -169.0376013041 (+9.554 kcal/mol)
C       -0.2269505875   -1.3046739343   -1.1392792264
C       -0.6830360684   -0.2699436215   -0.7518861583
H       -0.9108168064    0.6496299541   -0.2795425406
H        0.2525393369   -2.1947942828   -1.4044759370
C        0.4028428626    1.5125588946    1.3453489851
N        1.1654212880    1.6072230039    2.2298348558
6    
Image 6/11, Energy =  -169.0296531598 (+14.541 kcal/mol)
C       -0.2035891409   -1.2247605616   -1.0562006085
C       -0.7366427830   -0.2001728724   -0.7555030362
H       -1.0973257693    0.7186351279   -0.3987307593
H        0.3958676902   -2.0698218792   -1.1805340455
C        0.4360334570    1.3700140538    1.2541553371
N        1.2056565468    1.4061061527    2.1368130546
6    
Image 7/11, Energy =  -169.0134255893 (+24.724 kcal/mol)
C       -0.2140435816   -1.1487956006   -1.0058432301
C       -0.7210525868   -0.1069152202   -0.6907531328
H       -1.2618820519    0.7654627632   -0.5164223703
H        0.5183979266   -1.8910925745   -0.9363455988
C        0.4653220706    1.1478978367    1.1278708501
N        1.2132582116    1.2334428314    2.0214933969
6    
Image 8/11, Energy =  -168.9961739635 (+35.550 kcal/mol)
C       -0.2581626256   -1.1064442975   -1.0091270168
C       -0.6121362492    0.0130154825   -0.5313571954
H       -1.3460092918    0.7703056747   -0.5919006879
H        0.5852299219   -1.7089890909   -0.7427846649
C        0.4630958968    0.9024963090    0.9868218636
N        1.1679823205    1.1296160170    1.8883475590
6    
Image 9/11, Energy =  -169.0178991336 (+21.917 kcal/mol)
C       -0.2715366502   -1.0772885548   -1.0035021936
C       -0.5171575402    0.0900806371   -0.3942773055
H       -1.3297847550    0.7721847536   -0.5838906713
H        0.6043039470   -1.6470236346   -0.6807547070
C        0.4122742898    0.7788698325    0.8843116637
N        1.1019006781    1.0831770484    1.7781130876
6    
Image 10/11, Energy =  -169.0437609544 (+5.689 kcal/mol)
C       -0.2721093513   -1.0384613434   -0.9953339881
C       -0.4664498990    0.1336943575   -0.3047184047
H       -1.3026915424    0.8069996864   -0.5503883163
H        0.6404231461   -1.5232274468   -0.5526624607
C        0.3524169885    0.6272448767    0.7650856657
N        1.0484106581    0.9937498643    1.6380174988
