6    
Image 0/11, Energy =  -169.0522692293 (+0.000 kcal/mol)
C       -0.3689809232   -1.4576547332   -1.3858823910
C       -0.1536196575   -0.5941379364   -0.5627748996
H        0.0498937432    0.2058682499    0.1931202386
H       -0.5557149982   -2.2230003307   -2.1042277546
C        0.4068909404    1.6172446315    1.5286738868
N        0.6215308952    2.4516801189    2.3310909145
6    
Image 1/11, Energy =  -169.0511704248 (+0.690 kcal/mol)
C       -0.3611695636   -1.4429980458   -1.3601448529
C       -0.2924292201   -0.5380175985   -0.5800929685
H       -0.0969330983    0.3034014266    0.0983289334
H       -0.3965413190   -2.2566730728   -2.0242950861
C        0.4395465819    1.5570237961    1.5393203727
N        0.7075266299    2.3772635003    2.3268836007
6    
Image 2/11, Energy =  -169.0474380179 (+3.032 kcal/mol)
C       -0.3322568777   -1.4259999119   -1.3406115475
C       -0.4082519194   -0.4828855773   -0.6073377106
H       -0.2956013203    0.3903180264    0.0229390049
H       -0.2475924606   -2.2807957627   -1.9422180682
C        0.4931306843    1.4761805066    1.5606343681
N        0.7905718844    2.3231827191    2.3065939564
6    
Image 3/11, Energy =  -169.0434401363 (+5.540 kcal/mol)
C       -0.3007531028   -1.3944452012   -1.3087947707
C       -0.4921568364   -0.4231155804   -0.6387669193
H       -0.5298715463    0.4555297759   -0.0227273766
H       -0.0918388560   -2.2756429701   -1.8308209149
C        0.5420426958    1.4139311793    1.5141329411
N        0.8725776444    2.2237428062    2.2869770465
6    
Image 4/11, Energy =  -169.0374082725 (+9.325 kcal/mol)
C       -0.2753166297   -1.3524388854   -1.2414325370
C       -0.5412723758   -0.3456284841   -0.6617813594
H       -0.7468860826    0.5647355958   -0.1455810701
H        0.0663090963   -2.2533412829   -1.6468787647
C        0.5055704179    1.3933564790    1.4092293472
N        0.9915955707    1.9933165888    2.2864443821
6    
Image 5/11, Energy =  -169.0308524693 (+13.439 kcal/mol)
C       -0.2468685819   -1.2977323909   -1.1564190928
C       -0.6027800390   -0.2617266067   -0.6810712668
H       -0.9773312659    0.6442424539   -0.2905992449
H        0.2353762190   -2.1849608323   -1.4367119395
C        0.4916206456    1.3636763221    1.3196321638
N        1.0999830207    1.7365010608    2.2451693767
6    
Image 6/11, Energy =  -169.0242006984 (+17.613 kcal/mol)
C       -0.2241746193   -1.2381295043   -1.0681166307
C       -0.6532759936   -0.1866071657   -0.6786434366
H       -1.1554360524    0.6914322196   -0.4006677456
H        0.3778387271   -2.0809475528   -1.2453844821
C        0.4942228172    1.3123926389    1.2264083472
N        1.1608251157    1.5018593719    2.1664039531
6    
Image 7/11, Energy =  -169.0132586749 (+24.479 kcal/mol)
C       -0.2161668935   -1.1766839100   -0.9723745199
C       -0.6706961488   -0.1090224457   -0.6268216563
H       -1.2574076652    0.7454605160   -0.5035422722
H        0.4944459953   -1.9460503906   -1.0547716089
C        0.4797047123    1.2277642714    1.1085414682
N        1.1701200029    1.2585319543    2.0489685871
6    
Image 8/11, Energy =  -168.9947591833 (+36.088 kcal/mol)
C       -0.2343848106   -1.1203927951   -0.9000222138
C       -0.6326595421   -0.0006584470   -0.5205676760
H       -1.3104962076    0.7933047906   -0.5918660904
H        0.5932469015   -1.7813559764   -0.8477941110
C        0.4433398418    1.0732139133    0.9650384264
N        1.1409538241    1.0358885207    1.8952116590
6    
Image 9/11, Energy =  -169.0197673315 (+20.395 kcal/mol)
C       -0.2746356202   -1.0834606984   -0.9177573822
C       -0.5153452696    0.1221262759   -0.3645768229
H       -1.3111580863    0.8127875929   -0.6187583368
H        0.6397924827   -1.6585590470   -0.6888558413
C        0.3789778981    0.8328197752    0.8351517487
N        1.0823685920    0.9742861017    1.7547966316
6    
Image 10/11, Energy =  -169.0437609544 (+5.339 kcal/mol)
C       -0.2721093513   -1.0384613434   -0.9953339881
C       -0.4664498990    0.1336943575   -0.3047184047
H       -1.3026915424    0.8069996864   -0.5503883163
H        0.6404231461   -1.5232274468   -0.5526624607
C        0.3524169885    0.6272448767    0.7650856657
N        1.0484106581    0.9937498643    1.6380174988
