3    
Image 0/11, Energy =   -92.8141878354 (+8.803 kcal/mol)
C       -0.7519862184   -0.8272338399    0.0000000000
N        0.0394753354    0.0434721365    0.0000000000
H        0.7125108830    0.7837617034    0.0000000000
3    
Image 1/11, Energy =   -92.8140437833 (+8.893 kcal/mol)
C       -0.6077015172   -0.9150893121    0.0000000000
N       -0.0195136999    0.0910075321    0.0000000000
H        0.6272152171    0.8240817799   -0.0000000000
3    
Image 2/11, Energy =   -92.7981276318 (+18.881 kcal/mol)
C       -0.3476658962   -0.9700305525    0.0000000000
N       -0.2268068837    0.2007214768    0.0000000000
H        0.5744727799    0.7693090757   -0.0000000000
3    
Image 3/11, Energy =   -92.7698860289 (+36.602 kcal/mol)
C       -0.2231527283   -0.8932939770   -0.0000000000
N       -0.3795808175    0.2872875883    0.0000000000
H        0.6027335459    0.6060063887   -0.0000000000
3    
Image 4/11, Energy =   -92.7235674688 (+65.668 kcal/mol)
C       -0.0157137401   -0.6487473865   -0.0000000000
N       -0.6975372005    0.3229159519    0.0000000000
H        0.7132509406    0.3258314346   -0.0000000000
3    
Image 5/11, Energy =   -92.7504299416 (+48.811 kcal/mol)
C        0.0207163873   -0.4818897563   -0.0000000000
N       -0.8745724846    0.2615727199    0.0000000000
H        0.8538560973    0.2203170364   -0.0000000000
3    
Image 6/11, Energy =   -92.8094226498 (+11.793 kcal/mol)
C        0.0279388142   -0.2335226796   -0.0000000000
N       -1.0461757307    0.1570463361    0.0000000000
H        1.0182369165    0.0764763435   -0.0000000000
3    
Image 7/11, Energy =   -92.8281606010 (+0.035 kcal/mol)
C        0.0320863638   -0.0108679242   -0.0000000000
N       -1.1122690693   -0.0260254667   -0.0000000000
H        1.0801827056    0.0368933910   -0.0000000000
3    
Image 8/11, Energy =   -92.8282147870 (+0.001 kcal/mol)
C        0.0279928000    0.0126465440   -0.0000000000
N       -0.9981789090   -0.4928874893   -0.0000000000
H        0.9701861090    0.4802409454    0.0000000000
3    
Image 9/11, Energy =   -92.8282156559 (+0.000 kcal/mol)
C        0.0224812053    0.0205070626    0.0000000000
N       -0.8054170480   -0.7691461277   -0.0000000000
H        0.7829358427    0.7486390651   -0.0000000000
3    
Image 10/11, Energy =   -92.8275480229 (+0.419 kcal/mol)
C        0.0194260556    0.0213642891    0.0000000000
N       -0.7589320377   -0.8347584640    0.0000000000
H        0.7395059821    0.8133941749    0.0000000000
