3    
Image 0/11, Energy =   -92.8141878354 (+8.803 kcal/mol)
C       -0.7519862184   -0.8272338399    0.0000000000
N        0.0394753354    0.0434721365    0.0000000000
H        0.7125108830    0.7837617034    0.0000000000
3    
Image 1/11, Energy =   -92.8122832843 (+9.998 kcal/mol)
C       -0.6388646123   -0.8838209211    0.0000000000
N       -0.0540320560    0.1253334466    0.0000000000
H        0.6928966683    0.7584874744   -0.0000000000
3    
Image 2/11, Energy =   -92.7963848738 (+19.974 kcal/mol)
C       -0.3879680351   -0.9473067897   -0.0000000000
N       -0.2284724609    0.2196125380    0.0000000000
H        0.6164404960    0.7276942518   -0.0000000000
3    
Image 3/11, Energy =   -92.7705641253 (+36.177 kcal/mol)
C       -0.2277894984   -0.8941777376   -0.0000000000
N       -0.3732713665    0.2883299252    0.0000000000
H        0.6010608649    0.6058478125   -0.0000000000
3    
Image 4/11, Energy =   -92.7293904405 (+62.014 kcal/mol)
C       -0.0450174346   -0.7188571299   -0.0000000000
N       -0.5994531623    0.3346217629    0.0000000000
H        0.6444705969    0.3842353670   -0.0000000000
3    
Image 5/11, Energy =   -92.7501791414 (+48.969 kcal/mol)
C        0.0182817960   -0.4827440423   -0.0000000000
N       -0.8721900532    0.2666851674    0.0000000000
H        0.8539082572    0.2160588750   -0.0000000000
3    
Image 6/11, Energy =   -92.8104439927 (+11.152 kcal/mol)
C        0.0261055060   -0.2273398525   -0.0000000000
N       -1.0476119335    0.1644140131    0.0000000000
H        1.0215064275    0.0629258394   -0.0000000000
3    
Image 7/11, Energy =   -92.8278918690 (+0.203 kcal/mol)
C        0.0331720434   -0.0296933360   -0.0000000000
N       -1.1112435950   -0.0413042864   -0.0000000000
H        1.0780715516    0.0709976224   -0.0000000000
3    
Image 8/11, Energy =   -92.8281704240 (+0.028 kcal/mol)
C        0.0221425633    0.0242161463   -0.0000000000
N       -0.9942631560   -0.5005706869   -0.0000000000
H        0.9721205927    0.4763545406    0.0000000000
3    
Image 9/11, Energy =   -92.8282156559 (+0.000 kcal/mol)
C        0.0224812053    0.0205070626    0.0000000000
N       -0.8054170480   -0.7691461277   -0.0000000000
H        0.7829358427    0.7486390651   -0.0000000000
3    
Image 10/11, Energy =   -92.8275480229 (+0.419 kcal/mol)
C        0.0194260556    0.0213642891    0.0000000000
N       -0.7589320377   -0.8347584640    0.0000000000
H        0.7395059821    0.8133941749    0.0000000000
