3    
Image 0/11, Energy =   -92.8141878354 (+8.384 kcal/mol)
C       -0.7519862184   -0.8272338399    0.0000000000
N        0.0394753354    0.0434721365    0.0000000000
H        0.7125108830    0.7837617034    0.0000000000
3    
Image 1/11, Energy =   -92.8107910611 (+10.515 kcal/mol)
C       -0.6740125191   -0.8405356510    0.0000000000
N       -0.0587397432    0.1442480942   -0.0000000000
H        0.7327522623    0.6962875568   -0.0000000000
3    
Image 2/11, Energy =   -92.7826569479 (+28.170 kcal/mol)
C       -0.4920006430   -0.8378922998    0.0000000000
N       -0.2480808227    0.3244567372   -0.0000000000
H        0.7400814657    0.5134355625   -0.0000000000
3    
Image 3/11, Energy =   -92.7628114653 (+40.623 kcal/mol)
C       -0.3446069585   -0.8254517360   -0.0000000000
N       -0.3589682459    0.3633866737   -0.0000000000
H        0.7035752044    0.4620650622   -0.0000000000
3    
Image 4/11, Energy =   -92.7304702991 (+60.917 kcal/mol)
C       -0.1085689710   -0.7449578491   -0.0000000000
N       -0.5768651585    0.3595039124    0.0000000000
H        0.6854341295    0.3854539367    0.0000000000
3    
Image 5/11, Energy =   -92.7492490681 (+49.133 kcal/mol)
C        0.0053695524   -0.4947041454    0.0000000000
N       -0.8918487282    0.2443225605    0.0000000000
H        0.8864791757    0.2503815849    0.0000000000
3    
Image 6/11, Energy =   -92.7792384838 (+30.315 kcal/mol)
C        0.0523715727   -0.3557254446   -0.0000000000
N       -0.9839155178    0.0647036605   -0.0000000000
H        0.9315439452    0.2910217841   -0.0000000000
3    
Image 7/11, Energy =   -92.8077153368 (+12.445 kcal/mol)
C        0.0993735929   -0.2167467439   -0.0000000000
N       -1.0759823074   -0.1149152395   -0.0000000000
H        0.9766087146    0.3316619833   -0.0000000000
3    
Image 8/11, Energy =   -92.8245103507 (+1.906 kcal/mol)
C        0.0667477201   -0.0729485214   -0.0000000000
N       -0.9865230029   -0.4802578451    0.0000000000
H        0.9197752828    0.5532063665   -0.0000000000
3    
Image 9/11, Energy =   -92.8275429713 (+0.003 kcal/mol)
C        0.0182161928    0.0362006259    0.0000000000
N       -0.7876745778   -0.7718188836   -0.0000000000
H        0.7694583848    0.7356182579   -0.0000000000
3    
Image 10/11, Energy =   -92.8275480229 (+0.000 kcal/mol)
C        0.0194260556    0.0213642891    0.0000000000
N       -0.7589320378   -0.8347584640    0.0000000000
H        0.7395059821    0.8133941749    0.0000000000
