3    
Image 0/11, Energy =   -92.8141878354 (+8.803 kcal/mol)
C       -0.7519862184   -0.8272338399    0.0000000000
N        0.0394753354    0.0434721365    0.0000000000
H        0.7125108830    0.7837617034    0.0000000000
3    
Image 1/11, Energy =   -92.8039505916 (+15.226 kcal/mol)
C       -0.4309381766   -0.9619621698   -0.0000000000
N       -0.1725245002    0.1818083471   -0.0000000000
H        0.6034626768    0.7801538227    0.0000000000
3    
Image 2/11, Energy =   -92.7746586284 (+33.607 kcal/mol)
C       -0.2793483620   -0.8973225490   -0.0000000000
N       -0.3463474339    0.2899245328   -0.0000000000
H        0.6256957960    0.6073980162    0.0000000000
3    
Image 3/11, Energy =   -92.7236107816 (+65.640 kcal/mol)
C       -0.0248733260   -0.6499706491   -0.0000000000
N       -0.6831729576    0.3390955501   -0.0000000000
H        0.7080462835    0.3108750990    0.0000000000
3    
Image 4/11, Energy =   -92.7594322169 (+43.162 kcal/mol)
C        0.0166497332   -0.4477730288   -0.0000000000
N       -0.8989149188    0.2624576308   -0.0000000000
H        0.8822651856    0.1853153980    0.0000000000
3    
Image 5/11, Energy =   -92.8228546768 (+3.364 kcal/mol)
C        0.0265599172   -0.1268008355   -0.0000000000
N       -1.0859175130    0.1269448640   -0.0000000000
H        1.0593575958   -0.0001440285    0.0000000000
3    
Image 6/11, Energy =   -92.8282135980 (+0.001 kcal/mol)
C        0.0295207049    0.0060692847   -0.0000000000
N       -1.0790412733   -0.2739605107   -0.0000000000
H        1.0495205684    0.2678912260    0.0000000000
3    
Image 7/11, Energy =   -92.8282152908 (+0.000 kcal/mol)
C        0.0264881097    0.0152703858    0.0000000000
N       -0.9828042658   -0.5232366136    0.0000000000
H        0.9563161561    0.5079662279    0.0000000000
3    
Image 8/11, Energy =   -92.8282087267 (+0.004 kcal/mol)
C        0.0224462160    0.0194175923    0.0000000000
N       -0.8416461818   -0.7281254553    0.0000000000
H        0.8191999658    0.7087078630   -0.0000000000
3    
Image 9/11, Energy =   -92.8282155313 (+0.000 kcal/mol)
C        0.0246488688    0.0181250573    0.0000000000
N       -0.9151631979   -0.6345465837    0.0000000000
H        0.8905143291    0.6164215264   -0.0000000000
3    
Image 10/11, Energy =   -92.8275480229 (+0.419 kcal/mol)
C        0.0194260556    0.0213642891    0.0000000000
N       -0.7589320377   -0.8347584640    0.0000000000
H        0.7395059821    0.8133941749    0.0000000000
