3    
Image 0/11, Energy =   -92.8141878354 (+8.748 kcal/mol)
C       -0.7519862184   -0.8272338399    0.0000000000
N        0.0394753354    0.0434721365    0.0000000000
H        0.7125108830    0.7837617034    0.0000000000
3    
Image 1/11, Energy =   -92.8109358481 (+10.788 kcal/mol)
C       -0.6703083658   -0.8515186902    0.0000000000
N       -0.0664816504    0.1468386947    0.0000000000
H        0.7367900162    0.7046799955    0.0000000000
3    
Image 2/11, Energy =   -92.7874336004 (+25.536 kcal/mol)
C       -0.4684087424   -0.8712898066   -0.0000000000
N       -0.2422382953    0.2911413632    0.0000000000
H        0.7106470377    0.5801484434   -0.0000000000
3    
Image 3/11, Energy =   -92.7661741615 (+38.877 kcal/mol)
C       -0.3014978493   -0.8517870029   -0.0000000000
N       -0.3583026160    0.3371698875    0.0000000000
H        0.6598004653    0.5146171154   -0.0000000000
3    
Image 4/11, Energy =   -92.7319706474 (+60.340 kcal/mol)
C       -0.0747202637   -0.7318966176   -0.0000000000
N       -0.5677050129    0.3510383650    0.0000000000
H        0.6424252766    0.3808582526   -0.0000000000
3    
Image 5/11, Energy =   -92.7502715968 (+48.856 kcal/mol)
C        0.0197733196   -0.4802508543    0.0000000000
N       -0.8721335348    0.2614568345   -0.0000000000
H        0.8523602153    0.2187940198   -0.0000000000
3    
Image 6/11, Energy =   -92.7998286077 (+17.758 kcal/mol)
C        0.0521368573   -0.2831668934   -0.0000000000
N       -1.0312835173    0.0902470876   -0.0000000000
H        0.9791466600    0.1929198058   -0.0000000000
3    
Image 7/11, Energy =   -92.8193048527 (+5.537 kcal/mol)
C        0.0641931564   -0.1534263372    0.0000000000
N       -1.0868236712   -0.0950630735   -0.0000000000
H        1.0226305148    0.2484894107   -0.0000000000
3    
Image 8/11, Energy =   -92.8275719908 (+0.349 kcal/mol)
C        0.0471740759   -0.0256675272   -0.0000000000
N       -0.9969552786   -0.4896645684   -0.0000000000
H        0.9497812027    0.5153320956    0.0000000000
3    
Image 9/11, Energy =   -92.8281279463 (+0.000 kcal/mol)
C        0.0218360557    0.0231877130    0.0000000000
N       -0.8043921625   -0.7764682212   -0.0000000000
H        0.7825561069    0.7532805082   -0.0000000000
3    
Image 10/11, Energy =   -92.8275480229 (+0.364 kcal/mol)
C        0.0194260556    0.0213642891    0.0000000000
N       -0.7589320377   -0.8347584640    0.0000000000
H        0.7395059821    0.8133941749    0.0000000000
