3    
Image 0/11, Energy =   -92.8141878354 (+8.803 kcal/mol)
C       -0.7519862184   -0.8272338399    0.0000000000
N        0.0394753354    0.0434721365    0.0000000000
H        0.7125108830    0.7837617034    0.0000000000
3    
Image 1/11, Energy =   -92.8141663065 (+8.816 kcal/mol)
C       -0.6029667133   -0.9186336173    0.0000000000
N       -0.0163223466    0.0872535170    0.0000000000
H        0.6192890599    0.8313801003   -0.0000000000
3    
Image 2/11, Energy =   -92.7981669682 (+18.856 kcal/mol)
C       -0.3485838644   -0.9706426290   -0.0000000000
N       -0.2264810975    0.2013397048    0.0000000000
H        0.5750649619    0.7693029242   -0.0000000000
3    
Image 3/11, Energy =   -92.7696861874 (+36.728 kcal/mol)
C       -0.2255198521   -0.8919376048   -0.0000000000
N       -0.3794758906    0.2891996180    0.0000000000
H        0.6049957426    0.6027379868   -0.0000000000
3    
Image 4/11, Energy =   -92.7235677561 (+65.668 kcal/mol)
C       -0.0167326038   -0.6538453531   -0.0000000000
N       -0.6923215342    0.3247253609    0.0000000000
H        0.7090541380    0.3291199922   -0.0000000000
3    
Image 5/11, Energy =   -92.7505489985 (+48.737 kcal/mol)
C        0.0203898322   -0.4816431454   -0.0000000000
N       -0.8749817384    0.2618005498    0.0000000000
H        0.8545919062    0.2198425955   -0.0000000000
3    
Image 6/11, Energy =   -92.8091470710 (+11.966 kcal/mol)
C        0.0281967776   -0.2353119794   -0.0000000000
N       -1.0458398282    0.1551246976    0.0000000000
H        1.0176430506    0.0801872818   -0.0000000000
3    
Image 7/11, Energy =   -92.8281569736 (+0.037 kcal/mol)
C        0.0320610418   -0.0114214537   -0.0000000000
N       -1.1122908421   -0.0252004912   -0.0000000000
H        1.0802298003    0.0366219449   -0.0000000000
3    
Image 8/11, Energy =   -92.8282147870 (+0.001 kcal/mol)
C        0.0279928000    0.0126465440   -0.0000000000
N       -0.9981789090   -0.4928874893   -0.0000000000
H        0.9701861090    0.4802409454    0.0000000000
3    
Image 9/11, Energy =   -92.8282156559 (+0.000 kcal/mol)
C        0.0224812053    0.0205070626    0.0000000000
N       -0.8054170480   -0.7691461277   -0.0000000000
H        0.7829358427    0.7486390651   -0.0000000000
3    
Image 10/11, Energy =   -92.8275480229 (+0.419 kcal/mol)
C        0.0194260556    0.0213642891    0.0000000000
N       -0.7589320377   -0.8347584640    0.0000000000
H        0.7395059821    0.8133941749    0.0000000000
