3    
Image 0/11, Energy =   -92.8141878354 (+8.803 kcal/mol)
C       -0.7519862184   -0.8272338399    0.0000000000
N        0.0394753354    0.0434721365    0.0000000000
H        0.7125108830    0.7837617034    0.0000000000
3    
Image 1/11, Energy =   -92.8038260383 (+15.305 kcal/mol)
C       -0.4188182991   -0.9661763060   -0.0000000000
N       -0.1755104647    0.1801238591   -0.0000000000
H        0.5943287638    0.7860524469    0.0000000000
3    
Image 2/11, Energy =   -92.7727370400 (+34.813 kcal/mol)
C       -0.2427283578   -0.9000461732   -0.0000000000
N       -0.3600470517    0.2874924947   -0.0000000000
H        0.6027754094    0.6125536784    0.0000000000
3    
Image 3/11, Energy =   -92.7428229221 (+53.585 kcal/mol)
C       -0.1135775924   -0.7905198150   -0.0000000000
N       -0.5027794181    0.3425571274   -0.0000000000
H        0.6163570105    0.4479626877    0.0000000000
3    
Image 4/11, Energy =   -92.7236064005 (+65.643 kcal/mol)
C       -0.0250390230   -0.6468878929   -0.0000000000
N       -0.6887092097    0.3373228872   -0.0000000000
H        0.7137482327    0.3095650057    0.0000000000
3    
Image 5/11, Energy =   -92.7618714399 (+41.632 kcal/mol)
C        0.0158150246   -0.4393185236   -0.0000000000
N       -0.9058567142    0.2620782632   -0.0000000000
H        0.8900416896    0.1772402604    0.0000000000
3    
Image 6/11, Energy =   -92.8194172259 (+5.521 kcal/mol)
C        0.0287620764   -0.1616687007   -0.0000000000
N       -1.0772553009    0.1286009129   -0.0000000000
H        1.0484932245    0.0330677878    0.0000000000
3    
Image 7/11, Energy =   -92.8282118897 (+0.002 kcal/mol)
C        0.0304599947    0.0040129648    0.0000000000
N       -1.0809240881   -0.2672161263   -0.0000000000
H        1.0504640933    0.2632031614    0.0000000000
3    
Image 8/11, Energy =   -92.8282152908 (+0.000 kcal/mol)
C        0.0264881097    0.0152703858    0.0000000000
N       -0.9828042658   -0.5232366136    0.0000000000
H        0.9563161561    0.5079662279    0.0000000000
3    
Image 9/11, Energy =   -92.8282158187 (+0.000 kcal/mol)
C        0.0235918575    0.0192599684    0.0000000000
N       -0.8615339848   -0.7057764888    0.0000000000
H        0.8379421273    0.6865165204   -0.0000000000
3    
Image 10/11, Energy =   -92.8275480229 (+0.419 kcal/mol)
C        0.0194260556    0.0213642891    0.0000000000
N       -0.7589320377   -0.8347584640    0.0000000000
H        0.7395059821    0.8133941749    0.0000000000
