3    
Image 0/11, Energy =   -92.8141878354 (+8.802 kcal/mol)
C       -0.7519862184   -0.8272338399    0.0000000000
N        0.0394753354    0.0434721365    0.0000000000
H        0.7125108830    0.7837617034    0.0000000000
3    
Image 1/11, Energy =   -92.8122286154 (+10.032 kcal/mol)
C       -0.6448042205   -0.8798106310    0.0000000000
N       -0.0537604520    0.1270365727   -0.0000000000
H        0.6985646726    0.7527740583    0.0000000000
3    
Image 2/11, Energy =   -92.7971282342 (+19.507 kcal/mol)
C       -0.3866612255   -0.9519464432   -0.0000000000
N       -0.2234178111    0.2166076925    0.0000000000
H        0.6100790365    0.7353387507    0.0000000000
3    
Image 3/11, Energy =   -92.7731817108 (+34.534 kcal/mol)
C       -0.2316611241   -0.9045888495   -0.0000000000
N       -0.3628691558    0.2804279922    0.0000000000
H        0.5945302799    0.6241608573    0.0000000000
3    
Image 4/11, Energy =   -92.7307831077 (+61.139 kcal/mol)
C       -0.0450431305   -0.7266105419   -0.0000000000
N       -0.5887353964    0.3297660690    0.0000000000
H        0.6337785269    0.3968444729    0.0000000000
3    
Image 5/11, Energy =   -92.7524849921 (+47.521 kcal/mol)
C        0.0141073426   -0.4713000223   -0.0000000000
N       -0.8766279778    0.2646709558    0.0000000000
H        0.8625206353    0.2066290665    0.0000000000
3    
Image 6/11, Energy =   -92.8089280751 (+12.103 kcal/mol)
C        0.0203605300   -0.2367924206   -0.0000000000
N       -1.0380312893    0.1973836511    0.0000000000
H        1.0176707594    0.0394087695    0.0000000000
3    
Image 7/11, Energy =   -92.8281099932 (+0.066 kcal/mol)
C        0.0336218412   -0.0125129062   -0.0000000000
N       -1.1131804667   -0.0422046925    0.0000000000
H        1.0795586255    0.0547175987    0.0000000000
3    
Image 8/11, Energy =   -92.8280549776 (+0.100 kcal/mol)
C        0.0173685504    0.0337253579   -0.0000000000
N       -0.9880288387   -0.5114819735    0.0000000000
H        0.9706602883    0.4777566156   -0.0000000000
3    
Image 9/11, Energy =   -92.8282149805 (+0.000 kcal/mol)
C        0.0210470166    0.0223153438    0.0000000000
N       -0.7990347643   -0.7754244714   -0.0000000000
H        0.7779877476    0.7531091278   -0.0000000000
3    
Image 10/11, Energy =   -92.8275480229 (+0.419 kcal/mol)
C        0.0194260556    0.0213642891    0.0000000000
N       -0.7589320378   -0.8347584640    0.0000000000
H        0.7395059821    0.8133941749    0.0000000000
