3    
Image 0/11, Energy =   -92.8141878354 (+8.792 kcal/mol)
C       -0.7519862184   -0.8272338399    0.0000000000
N        0.0394753354    0.0434721365    0.0000000000
H        0.7125108830    0.7837617034    0.0000000000
3    
Image 1/11, Energy =   -92.8109318756 (+10.835 kcal/mol)
C       -0.6727457510   -0.8495272189    0.0000000000
N       -0.0659904554    0.1471256214    0.0000000000
H        0.7387362064    0.7024015975    0.0000000000
3    
Image 2/11, Energy =   -92.7860557580 (+26.445 kcal/mol)
C       -0.4768220198   -0.8606136078   -0.0000000000
N       -0.2432493066    0.3012192015    0.0000000000
H        0.7200713264    0.5593944062   -0.0000000000
3    
Image 3/11, Energy =   -92.7651689739 (+39.552 kcal/mol)
C       -0.3114336645   -0.8458162419   -0.0000000000
N       -0.3573825392    0.3482349195    0.0000000000
H        0.6688162037    0.4975813224   -0.0000000000
3    
Image 4/11, Energy =   -92.7318574131 (+60.455 kcal/mol)
C       -0.0813457352   -0.7347304002   -0.0000000000
N       -0.5693791296    0.3550983592    0.0000000000
H        0.6507248648    0.3796320410   -0.0000000000
3    
Image 5/11, Energy =   -92.7502584925 (+48.908 kcal/mol)
C        0.0225081119   -0.4827579296    0.0000000000
N       -0.8751584349    0.2590550738   -0.0000000000
H        0.8526503230    0.2237028558   -0.0000000000
3    
Image 6/11, Energy =   -92.7955618434 (+20.480 kcal/mol)
C        0.0537152366   -0.3010890091    0.0000000000
N       -1.0192338392    0.0785110781   -0.0000000000
H        0.9655186027    0.2225779310   -0.0000000000
3    
Image 7/11, Energy =   -92.8172381609 (+6.878 kcal/mol)
C        0.0661143987   -0.1713099003    0.0000000000
N       -1.0752442954   -0.1045155659   -0.0000000000
H        1.0091298967    0.2758254662   -0.0000000000
3    
Image 8/11, Energy =   -92.8270625267 (+0.713 kcal/mol)
C        0.0548368218   -0.0385685290   -0.0000000000
N       -0.9968254119   -0.4861912134   -0.0000000000
H        0.9419885901    0.5247597424    0.0000000000
3    
Image 9/11, Energy =   -92.8281989541 (+0.000 kcal/mol)
C        0.0202728663    0.0228677571    0.0000000000
N       -0.8022999102   -0.7753838506   -0.0000000000
H        0.7820270439    0.7525160935   -0.0000000000
3    
Image 10/11, Energy =   -92.8275480229 (+0.408 kcal/mol)
C        0.0194260556    0.0213642891    0.0000000000
N       -0.7589320377   -0.8347584640    0.0000000000
H        0.7395059821    0.8133941749    0.0000000000
