3    
Image 0/11, Energy =   -92.8141878354 (+8.803 kcal/mol)
C       -0.7519862184   -0.8272338399    0.0000000000
N        0.0394753354    0.0434721365    0.0000000000
H        0.7125108830    0.7837617034    0.0000000000
3    
Image 1/11, Energy =   -92.8038256644 (+15.305 kcal/mol)
C       -0.4117788374   -0.9692479903   -0.0000000000
N       -0.1769169655    0.1788208903   -0.0000000000
H        0.5886958029    0.7904271000    0.0000000000
3    
Image 2/11, Energy =   -92.7727850233 (+34.783 kcal/mol)
C       -0.2419754340   -0.8997591191   -0.0000000000
N       -0.3607286805    0.2857626611   -0.0000000000
H        0.6027041144    0.6139964580    0.0000000000
3    
Image 3/11, Energy =   -92.7427366963 (+53.639 kcal/mol)
C       -0.1189448296   -0.7891740961   -0.0000000000
N       -0.5035227460    0.3408717419   -0.0000000000
H        0.6224675756    0.4483023542    0.0000000000
3    
Image 4/11, Energy =   -92.7236064005 (+65.643 kcal/mol)
C       -0.0250390230   -0.6468878929   -0.0000000000
N       -0.6887092097    0.3373228872   -0.0000000000
H        0.7137482327    0.3095650057    0.0000000000
3    
Image 5/11, Energy =   -92.7618714399 (+41.632 kcal/mol)
C        0.0158150246   -0.4393185236   -0.0000000000
N       -0.9058567142    0.2620782632   -0.0000000000
H        0.8900416896    0.1772402604    0.0000000000
3    
Image 6/11, Energy =   -92.8192514871 (+5.625 kcal/mol)
C        0.0278468814   -0.1629425570   -0.0000000000
N       -1.0757870628    0.1306741144   -0.0000000000
H        1.0479401814    0.0322684426    0.0000000000
3    
Image 7/11, Energy =   -92.8282118897 (+0.002 kcal/mol)
C        0.0304599947    0.0040129648    0.0000000000
N       -1.0809240881   -0.2672161263   -0.0000000000
H        1.0504640933    0.2632031614    0.0000000000
3    
Image 8/11, Energy =   -92.8282152908 (+0.000 kcal/mol)
C        0.0264881097    0.0152703858    0.0000000000
N       -0.9828042658   -0.5232366136    0.0000000000
H        0.9563161561    0.5079662279    0.0000000000
3    
Image 9/11, Energy =   -92.8282158187 (+0.000 kcal/mol)
C        0.0235918575    0.0192599684    0.0000000000
N       -0.8615339848   -0.7057764888    0.0000000000
H        0.8379421273    0.6865165204   -0.0000000000
3    
Image 10/11, Energy =   -92.8275480229 (+0.419 kcal/mol)
C        0.0194260556    0.0213642891    0.0000000000
N       -0.7589320377   -0.8347584640    0.0000000000
H        0.7395059821    0.8133941749    0.0000000000
