3    
Image 0/11, Energy =   -92.8141878354 (+8.803 kcal/mol)
C       -0.7519862184   -0.8272338399    0.0000000000
N        0.0394753354    0.0434721365    0.0000000000
H        0.7125108830    0.7837617034    0.0000000000
3    
Image 1/11, Energy =   -92.8039479151 (+15.228 kcal/mol)
C       -0.4291532164   -0.9623394811   -0.0000000000
N       -0.1726126407    0.1813366617   -0.0000000000
H        0.6017658571    0.7810028195    0.0000000000
3    
Image 2/11, Energy =   -92.7723846855 (+35.035 kcal/mol)
C       -0.2607202611   -0.8930010130   -0.0000000000
N       -0.3557618814    0.2952683696   -0.0000000000
H        0.6164821425    0.5977326434    0.0000000000
3    
Image 3/11, Energy =   -92.7428946958 (+53.540 kcal/mol)
C       -0.1261684368   -0.7878501559   -0.0000000000
N       -0.4984236492    0.3456584721   -0.0000000000
H        0.6245920860    0.4421916838    0.0000000000
3    
Image 4/11, Energy =   -92.7236064005 (+65.643 kcal/mol)
C       -0.0250390230   -0.6468878929   -0.0000000000
N       -0.6887092097    0.3373228872   -0.0000000000
H        0.7137482327    0.3095650057    0.0000000000
3    
Image 5/11, Energy =   -92.7618714399 (+41.632 kcal/mol)
C        0.0158150246   -0.4393185236   -0.0000000000
N       -0.9058567142    0.2620782632   -0.0000000000
H        0.8900416896    0.1772402604    0.0000000000
3    
Image 6/11, Energy =   -92.8199957300 (+5.158 kcal/mol)
C        0.0259630291   -0.1564544119   -0.0000000000
N       -1.0764499091    0.1407682422   -0.0000000000
H        1.0504868800    0.0156861697    0.0000000000
3    
Image 7/11, Energy =   -92.8282118897 (+0.002 kcal/mol)
C        0.0304599947    0.0040129648    0.0000000000
N       -1.0809240881   -0.2672161263   -0.0000000000
H        1.0504640933    0.2632031614    0.0000000000
3    
Image 8/11, Energy =   -92.8282152908 (+0.000 kcal/mol)
C        0.0264881097    0.0152703858    0.0000000000
N       -0.9828042658   -0.5232366136    0.0000000000
H        0.9563161561    0.5079662279    0.0000000000
3    
Image 9/11, Energy =   -92.8282158187 (+0.000 kcal/mol)
C        0.0235918575    0.0192599684    0.0000000000
N       -0.8615339848   -0.7057764888    0.0000000000
H        0.8379421273    0.6865165204   -0.0000000000
3    
Image 10/11, Energy =   -92.8275480229 (+0.419 kcal/mol)
C        0.0194260556    0.0213642891    0.0000000000
N       -0.7589320377   -0.8347584640    0.0000000000
H        0.7395059821    0.8133941749    0.0000000000
