3    
Image 0/11, Energy =   -92.8141878354 (+8.802 kcal/mol)
C       -0.7519862184   -0.8272338399    0.0000000000
N        0.0394753354    0.0434721365    0.0000000000
H        0.7125108830    0.7837617034    0.0000000000
3    
Image 1/11, Energy =   -92.8039505916 (+15.226 kcal/mol)
C       -0.4309381766   -0.9619621698   -0.0000000000
N       -0.1725245002    0.1818083471   -0.0000000000
H        0.6034626768    0.7801538227    0.0000000000
3    
Image 2/11, Energy =   -92.7751613460 (+33.292 kcal/mol)
C       -0.2818139909   -0.8985972562   -0.0000000000
N       -0.3439908630    0.2885899205   -0.0000000000
H        0.6258048539    0.6100073357    0.0000000000
3    
Image 3/11, Energy =   -92.7236005707 (+65.647 kcal/mol)
C       -0.0242375147   -0.6472868177   -0.0000000000
N       -0.6857128963    0.3380796980   -0.0000000000
H        0.7099504110    0.3092071197    0.0000000000
3    
Image 4/11, Energy =   -92.7572590084 (+44.526 kcal/mol)
C        0.0148068348   -0.4557786878   -0.0000000000
N       -0.8913017507    0.2686173565   -0.0000000000
H        0.8764949158    0.1871613312    0.0000000000
3    
Image 5/11, Energy =   -92.8246855252 (+2.215 kcal/mol)
C        0.0307970502   -0.1016292512   -0.0000000000
N       -1.0959470364    0.0674758755   -0.0000000000
H        1.0651499862    0.0341533757    0.0000000000
3    
Image 6/11, Energy =   -92.8281022338 (+0.071 kcal/mol)
C        0.0322510015   -0.0037253080   -0.0000000000
N       -1.0866277116   -0.2638240452   -0.0000000000
H        1.0543767101    0.2675493531    0.0000000000
3    
Image 7/11, Energy =   -92.8282152908 (+0.000 kcal/mol)
C        0.0264881097    0.0152703858    0.0000000000
N       -0.9828042658   -0.5232366136    0.0000000000
H        0.9563161561    0.5079662279    0.0000000000
3    
Image 8/11, Energy =   -92.8282152219 (+0.000 kcal/mol)
C        0.0222554493    0.0210598788    0.0000000000
N       -0.8074843982   -0.7673915336    0.0000000000
H        0.7852289489    0.7463316548   -0.0000000000
3    
Image 9/11, Energy =   -92.8282129234 (+0.001 kcal/mol)
C        0.0245960094    0.0174276868    0.0000000000
N       -0.9443786268   -0.5894090729    0.0000000000
H        0.9197826174    0.5719813861   -0.0000000000
3    
Image 10/11, Energy =   -92.8275480229 (+0.419 kcal/mol)
C        0.0194260556    0.0213642891    0.0000000000
N       -0.7589320377   -0.8347584640    0.0000000000
H        0.7395059821    0.8133941749    0.0000000000
