3    
Image 0/11, Energy =   -92.8141878354 (+8.794 kcal/mol)
C       -0.7519862184   -0.8272338399    0.0000000000
N        0.0394753354    0.0434721365    0.0000000000
H        0.7125108830    0.7837617034    0.0000000000
3    
Image 1/11, Energy =   -92.8109884551 (+10.802 kcal/mol)
C       -0.6697415178   -0.8528118827    0.0000000000
N       -0.0661172481    0.1463186314   -0.0000000000
H        0.7358587659    0.7064932512   -0.0000000000
3    
Image 2/11, Energy =   -92.7879818669 (+25.239 kcal/mol)
C       -0.4615856261   -0.8775344236    0.0000000000
N       -0.2428100610    0.2863731957   -0.0000000000
H        0.7043956870    0.5911612279    0.0000000000
3    
Image 3/11, Energy =   -92.7678530069 (+37.870 kcal/mol)
C       -0.3033013713   -0.8589767886   -0.0000000000
N       -0.3538261172    0.3307196991    0.0000000000
H        0.6571274885    0.5282570895    0.0000000000
3    
Image 4/11, Energy =   -92.7321654034 (+60.264 kcal/mol)
C       -0.0694925560   -0.7336306585   -0.0000000000
N       -0.5669647937    0.3515289139    0.0000000000
H        0.6364573497    0.3821017447    0.0000000000
3    
Image 5/11, Energy =   -92.7519560077 (+47.845 kcal/mol)
C        0.0191891231   -0.4744859948   -0.0000000000
N       -0.8774956963    0.2614853357    0.0000000000
H        0.8583065732    0.2130006591    0.0000000000
3    
Image 6/11, Energy =   -92.7988462625 (+18.421 kcal/mol)
C        0.0444427568   -0.2887660737    0.0000000000
N       -1.0250670589    0.1253591328    0.0000000000
H        0.9806243021    0.1634069409    0.0000000000
3    
Image 7/11, Energy =   -92.8213952581 (+4.272 kcal/mol)
C        0.0536543516   -0.1363139343   -0.0000000000
N       -1.0873621050   -0.0922986090   -0.0000000000
H        1.0337077534    0.2286125433   -0.0000000000
3    
Image 8/11, Energy =   -92.8278494016 (+0.222 kcal/mol)
C        0.0422941771   -0.0158857656   -0.0000000000
N       -0.9933498417   -0.5001870487    0.0000000000
H        0.9510556646    0.5160728143   -0.0000000000
3    
Image 9/11, Energy =   -92.8282024293 (+0.000 kcal/mol)
C        0.0187287233    0.0233642353    0.0000000000
N       -0.7997362677   -0.7771607228   -0.0000000000
H        0.7810075443    0.7537964877   -0.0000000000
3    
Image 10/11, Energy =   -92.8275480229 (+0.411 kcal/mol)
C        0.0194260556    0.0213642891    0.0000000000
N       -0.7589320378   -0.8347584640    0.0000000000
H        0.7395059821    0.8133941749    0.0000000000
