3    
Image 0/11, Energy =   -92.8141878354 (+8.801 kcal/mol)
C       -0.7519862184   -0.8272338399    0.0000000000
N        0.0394753354    0.0434721365    0.0000000000
H        0.7125108830    0.7837617034    0.0000000000
3    
Image 1/11, Energy =   -92.8118397699 (+10.275 kcal/mol)
C       -0.6447149801   -0.8769926107    0.0000000000
N       -0.0599379428    0.1322150882    0.0000000000
H        0.7046529229    0.7447775225   -0.0000000000
3    
Image 2/11, Energy =   -92.7954764245 (+20.543 kcal/mol)
C       -0.4012807782   -0.9380695561   -0.0000000000
N       -0.2309919417    0.2273876445    0.0000000000
H        0.6322727199    0.7106819116   -0.0000000000
3    
Image 3/11, Energy =   -92.7703421365 (+36.315 kcal/mol)
C       -0.2354138913   -0.8906191508   -0.0000000000
N       -0.3716831121    0.2911927190    0.0000000000
H        0.6070970034    0.5994264318   -0.0000000000
3    
Image 4/11, Energy =   -92.7321059688 (+60.309 kcal/mol)
C       -0.0552825989   -0.7345901764   -0.0000000000
N       -0.5763453491    0.3347856006    0.0000000000
H        0.6316279480    0.3998045758   -0.0000000000
3    
Image 5/11, Energy =   -92.7502063267 (+48.950 kcal/mol)
C        0.0162901005   -0.4829995206   -0.0000000000
N       -0.8714313005    0.2701599562    0.0000000000
H        0.8551412000    0.2128395644   -0.0000000000
3    
Image 6/11, Energy =   -92.8102696202 (+11.260 kcal/mol)
C        0.0266199822   -0.2287226221   -0.0000000000
N       -1.0480439637    0.1605327022    0.0000000000
H        1.0214239815    0.0681899199   -0.0000000000
3    
Image 7/11, Energy =   -92.8275988248 (+0.386 kcal/mol)
C        0.0312168178   -0.0410967667    0.0000000000
N       -1.1105705592   -0.0466646583   -0.0000000000
H        1.0793537414    0.0877614250   -0.0000000000
3    
Image 8/11, Energy =   -92.8281569463 (+0.036 kcal/mol)
C        0.0209161327    0.0253521633   -0.0000000000
N       -0.9938510515   -0.5018811504   -0.0000000000
H        0.9729349188    0.4765289871    0.0000000000
3    
Image 9/11, Energy =   -92.8282138141 (+0.000 kcal/mol)
C        0.0228938962    0.0205607949    0.0000000000
N       -0.8041380921   -0.7694352719   -0.0000000000
H        0.7812441959    0.7488744769   -0.0000000000
3    
Image 10/11, Energy =   -92.8275480229 (+0.418 kcal/mol)
C        0.0194260556    0.0213642891    0.0000000000
N       -0.7589320377   -0.8347584640    0.0000000000
H        0.7395059821    0.8133941749    0.0000000000
