3    
Image 0/11, Energy =   -92.8141878354 (+8.803 kcal/mol)
C       -0.7519862184   -0.8272338399    0.0000000000
N        0.0394753354    0.0434721365    0.0000000000
H        0.7125108830    0.7837617034    0.0000000000
3    
Image 1/11, Energy =   -92.8126385120 (+9.775 kcal/mol)
C       -0.6347828793   -0.8885438464    0.0000000000
N       -0.0487729319    0.1192445856    0.0000000000
H        0.6835558112    0.7692992608   -0.0000000000
3    
Image 2/11, Energy =   -92.7966497241 (+19.808 kcal/mol)
C       -0.3802129374   -0.9515195826   -0.0000000000
N       -0.2288912511    0.2161771324    0.0000000000
H        0.6091041884    0.7353424501   -0.0000000000
3    
Image 3/11, Energy =   -92.7704617396 (+36.241 kcal/mol)
C       -0.2265483088   -0.8943904139   -0.0000000000
N       -0.3746725529    0.2880429521    0.0000000000
H        0.6012208617    0.6063474618   -0.0000000000
3    
Image 4/11, Energy =   -92.7263415449 (+63.927 kcal/mol)
C       -0.0312192571   -0.6945741698   -0.0000000000
N       -0.6292607897    0.3341895946    0.0000000000
H        0.6604800469    0.3603845752   -0.0000000000
3    
Image 5/11, Energy =   -92.7502188249 (+48.944 kcal/mol)
C        0.0200117207   -0.4821103827   -0.0000000000
N       -0.8728641563    0.2639269211    0.0000000000
H        0.8528524356    0.2181834616   -0.0000000000
3    
Image 6/11, Energy =   -92.8103568786 (+11.207 kcal/mol)
C        0.0265256129   -0.2278663192   -0.0000000000
N       -1.0477911267    0.1615255225    0.0000000000
H        1.0212655138    0.0663407967   -0.0000000000
3    
Image 7/11, Energy =   -92.8279395376 (+0.173 kcal/mol)
C        0.0325522926   -0.0273841291   -0.0000000000
N       -1.1109356774   -0.0392350275   -0.0000000000
H        1.0783833847    0.0666191567   -0.0000000000
3    
Image 8/11, Energy =   -92.8281964880 (+0.012 kcal/mol)
C        0.0238836682    0.0204596748   -0.0000000000
N       -0.9953393149   -0.4987001936   -0.0000000000
H        0.9714556466    0.4782405188    0.0000000000
3    
Image 9/11, Energy =   -92.8282156559 (+0.000 kcal/mol)
C        0.0224812053    0.0205070626    0.0000000000
N       -0.8054170480   -0.7691461277   -0.0000000000
H        0.7829358427    0.7486390651   -0.0000000000
3    
Image 10/11, Energy =   -92.8275480229 (+0.419 kcal/mol)
C        0.0194260556    0.0213642891    0.0000000000
N       -0.7589320377   -0.8347584640    0.0000000000
H        0.7395059821    0.8133941749    0.0000000000
