3    
Image 0/11, Energy =   -92.8141878354 (+8.767 kcal/mol)
C       -0.7519862184   -0.8272338399    0.0000000000
N        0.0394753354    0.0434721365    0.0000000000
H        0.7125108830    0.7837617034    0.0000000000
3    
Image 1/11, Energy =   -92.8111062649 (+10.700 kcal/mol)
C       -0.6619470768   -0.8593626144    0.0000000000
N       -0.0661395608    0.1439608567    0.0000000000
H        0.7280866376    0.7154017577   -0.0000000000
3    
Image 2/11, Energy =   -92.7907226536 (+23.491 kcal/mol)
C       -0.4448046273   -0.8980237542   -0.0000000000
N       -0.2393427841    0.2660917501    0.0000000000
H        0.6841474113    0.6319320041   -0.0000000000
3    
Image 3/11, Energy =   -92.7681091522 (+37.681 kcal/mol)
C       -0.2755760798   -0.8698766265   -0.0000000000
N       -0.3642313367    0.3182304435    0.0000000000
H        0.6398074165    0.5516461830   -0.0000000000
3    
Image 4/11, Energy =   -92.7320744303 (+60.293 kcal/mol)
C       -0.0637432925   -0.7330904978   -0.0000000000
N       -0.5708512329    0.3448696981    0.0000000000
H        0.6345945254    0.3882207997   -0.0000000000
3    
Image 5/11, Energy =   -92.7502711150 (+48.875 kcal/mol)
C        0.0165099421   -0.4822509536   -0.0000000000
N       -0.8715980966    0.2682180312    0.0000000000
H        0.8550881546    0.2140329225   -0.0000000000
3    
Image 6/11, Energy =   -92.8055763066 (+14.170 kcal/mol)
C        0.0371909931   -0.2547599377   -0.0000000000
N       -1.0412472817    0.1193195228   -0.0000000000
H        1.0040562887    0.1354404149   -0.0000000000
3    
Image 7/11, Energy =   -92.8239988190 (+2.610 kcal/mol)
C        0.0425656717   -0.1077964234    0.0000000000
N       -1.0957845362   -0.0757090977   -0.0000000000
H        1.0532188645    0.1835055211   -0.0000000000
3    
Image 8/11, Energy =   -92.8281330058 (+0.016 kcal/mol)
C        0.0334330258   -0.0004333350   -0.0000000000
N       -0.9963155932   -0.4962162290   -0.0000000000
H        0.9628825673    0.4966495640    0.0000000000
3    
Image 9/11, Energy =   -92.8281582139 (+0.000 kcal/mol)
C        0.0237191323    0.0229426500    0.0000000000
N       -0.8033667063   -0.7737289992   -0.0000000000
H        0.7796475740    0.7507863492   -0.0000000000
3    
Image 10/11, Energy =   -92.8275480229 (+0.383 kcal/mol)
C        0.0194260556    0.0213642891    0.0000000000
N       -0.7589320377   -0.8347584640    0.0000000000
H        0.7395059821    0.8133941749    0.0000000000
