3    
Climbing Image - Chain 62 Image 4 Energy   -92.7236064005 (+65.643 kcal/mol) RMSGrad 0.025 eV/Ang
C       -0.1114711160   -0.6377029794    0.0000000000
N       -0.6373134680    0.4265426664   -0.0000000000
H        0.7487845839    0.2111603077    0.0000000000
