6    
Image 0/11, Energy =  -169.0522692293 (+0.383 kcal/mol)
C       -0.3689809232   -1.4576547332   -1.3858823910
C       -0.1536196575   -0.5941379364   -0.5627748996
H        0.0498937432    0.2058682499    0.1931202386
H       -0.5557149982   -2.2230003307   -2.1042277546
C        0.4068909404    1.6172446315    1.5286738868
N        0.6215308952    2.4516801189    2.3310909145
6    
Image 1/11, Energy =  -169.0528791141 (+0.000 kcal/mol)
C       -0.3435932930   -1.4589832171   -1.3586728009
C       -0.2649985769   -0.5247857827   -0.6112348124
H       -0.1463951844    0.2976941150    0.0870000161
H       -0.3950984191   -2.2836833121   -2.0063920065
C        0.3488897218    1.6668990242    1.5102457319
N        0.8011957515    2.3028591724    2.3790538682
6    
Image 2/11, Energy =  -169.0507392421 (+1.343 kcal/mol)
C       -0.3130520167   -1.4427410404   -1.3178360261
C       -0.3755567852   -0.4482180425   -0.6528076762
H       -0.3398833817    0.4129248514   -0.0019757898
H       -0.2280778124   -2.3222365953   -1.8827648025
C        0.3038206118    1.6959320726    1.4867448980
N        0.9527493838    2.1043387532    2.3686393945
6    
Image 3/11, Energy =  -169.0474603280 (+3.400 kcal/mol)
C       -0.2795154401   -1.4078131572   -1.2613314397
C       -0.4824881291   -0.3741592013   -0.6919770934
H       -0.5365641522    0.5187856687   -0.0971633247
H       -0.0578246369   -2.3195941196   -1.7289763210
C        0.2865477309    1.6969843939    1.4657894182
N        1.0698446272    1.8857964140    2.3136587597
6    
Image 4/11, Energy =  -169.0429605268 (+6.224 kcal/mol)
C       -0.2420500507   -1.3536777187   -1.1890456494
C       -0.5873654958   -0.3022864939   -0.7344127364
H       -0.7465590047    0.6151779453   -0.2135926678
H        0.1151341165   -2.2745923446   -1.5395671426
C        0.2978550938    1.6548309951    1.4439114877
N        1.1629853407    1.6605476146    2.2327067085
6    
Image 5/11, Energy =  -169.0374415812 (+9.687 kcal/mol)
C       -0.2079062128   -1.2826741026   -1.1081651022
C       -0.6798555207   -0.2380542161   -0.7699669669
H       -0.9537015109    0.6913985569   -0.3413125916
H        0.2768812501   -2.1846474404   -1.3297818216
C        0.3336064622    1.5535236479    1.4011404782
N        1.2309755319    1.4604535513    2.1480860050
6    
Image 6/11, Energy =  -169.0297296912 (+14.526 kcal/mol)
C       -0.1858745977   -1.1977766214   -1.0252139364
C       -0.7455935730   -0.1719875693   -0.7785942899
H       -1.1429585614    0.7507553854   -0.4653995327
H        0.4223035760   -2.0464166990   -1.1026724259
C        0.3825190815    1.3764279479    1.3061512101
N        1.2696040745    1.2889975530    2.0657289761
6    
Image 7/11, Energy =  -169.0139929939 (+24.401 kcal/mol)
C       -0.2010311497   -1.1316714066   -0.9898152205
C       -0.7297491718   -0.0905676387   -0.7081609849
H       -1.2766796950    0.7864940679   -0.5588420242
H        0.5252741184   -1.8805989920   -0.8924234054
C        0.4234612067    1.1310952288    1.1668771446
N        1.2587246914    1.1852487369    1.9823644921
6    
Image 8/11, Energy =  -168.9961774026 (+35.581 kcal/mol)
C       -0.2504095673   -1.1026249036   -1.0116495101
C       -0.6169730424    0.0073776895   -0.5403115348
H       -1.3248940210    0.7883299439   -0.6013582734
H        0.5686216537   -1.7399162210   -0.7533963977
C        0.4404992923    0.9005035167    1.0207462442
N        1.1831556848    1.1463299706    1.8859694738
6    
Image 9/11, Energy =  -169.0167554039 (+22.668 kcal/mol)
C       -0.2705582933   -1.0735670354   -1.0106239303
C       -0.5088435310    0.0878743144   -0.3873233787
H       -1.3085968948    0.7818393034   -0.5896825363
H        0.5834265607   -1.6879044802   -0.7048343761
C        0.4009580028    0.7806827530    0.9089335525
N        1.1036141557    1.1110751407    1.7835306699
6    
Image 10/11, Energy =  -169.0437609544 (+5.722 kcal/mol)
C       -0.2721093513   -1.0384613434   -0.9953339881
C       -0.4664498990    0.1336943575   -0.3047184047
H       -1.3026915424    0.8069996864   -0.5503883163
H        0.6404231461   -1.5232274468   -0.5526624607
C        0.3524169885    0.6272448767    0.7650856657
N        1.0484106581    0.9937498643    1.6380174988
