6    
Image 0/11, Energy =  -169.0522692293 (+0.402 kcal/mol)
C       -0.3689809232   -1.4576547332   -1.3858823910
C       -0.1536196575   -0.5941379364   -0.5627748996
H        0.0498937432    0.2058682499    0.1931202386
H       -0.5557149982   -2.2230003307   -2.1042277546
C        0.4068909404    1.6172446315    1.5286738868
N        0.6215308952    2.4516801189    2.3310909145
6    
Image 1/11, Energy =  -169.0529096977 (+0.000 kcal/mol)
C       -0.3439171772   -1.4593725528   -1.3596510038
C       -0.2646235835   -0.5261474557   -0.6110503160
H       -0.1455229576    0.2956222101    0.0879946748
H       -0.3962480403   -2.2832556001   -2.0084855731
C        0.3504649583    1.6670640281    1.5116181687
N        0.7998468001    2.3060893702    2.3795740458
6    
Image 2/11, Energy =  -169.0507971058 (+1.326 kcal/mol)
C       -0.3137265523   -1.4435162639   -1.3191107942
C       -0.3743553398   -0.4503272075   -0.6519204509
H       -0.3375529989    0.4099809500   -0.0000659776
H       -0.2302862203   -2.3217391123   -1.8862326713
C        0.3051814630    1.6966405127    1.4873752625
N        0.9507396479    2.1089611201    2.3699546293
6    
Image 3/11, Energy =  -169.0474603280 (+3.420 kcal/mol)
C       -0.2795154401   -1.4078131572   -1.2613314397
C       -0.4824881291   -0.3741592013   -0.6919770934
H       -0.5365641522    0.5187856687   -0.0971633247
H       -0.0578246369   -2.3195941196   -1.7289763210
C        0.2865477309    1.6969843939    1.4657894182
N        1.0698446272    1.8857964140    2.3136587597
6    
Image 4/11, Energy =  -169.0430269733 (+6.202 kcal/mol)
C       -0.2427402496   -1.3546021479   -1.1900232872
C       -0.5862067319   -0.3035825730   -0.7330507473
H       -0.7434287750    0.6135740778   -0.2108413621
H        0.1132094948   -2.2751166407   -1.5427474945
C        0.2983666705    1.6557722961    1.4427190250
N        1.1607995910    1.6639549855    2.2339438661
6    
Image 5/11, Energy =  -169.0374976353 (+9.671 kcal/mol)
C       -0.2083509547   -1.2836576974   -1.1088763377
C       -0.6790802175   -0.2390757177   -0.7687692233
H       -0.9512462932    0.6903549450   -0.3388086270
H        0.2754604296   -2.1855854486   -1.3326536929
C        0.3339576628    1.5549649993    1.3995836295
N        1.2292593729    1.4629989166    2.1495242522
6    
Image 6/11, Energy =  -169.0297964389 (+14.504 kcal/mol)
C       -0.1861520814   -1.1987889442   -1.0260683034
C       -0.7448988708   -0.1728092050   -0.7780372080
H       -1.1410747485    0.7500595297   -0.4635889611
H        0.4209952397   -2.0479669579   -1.1053933166
C        0.3824278196    1.3779556561    1.3062053032
N        1.2687026414    1.2915499180    2.0668824872
6    
Image 7/11, Energy =  -169.0139929939 (+24.421 kcal/mol)
C       -0.2010311497   -1.1316714066   -0.9898152205
C       -0.7297491718   -0.0905676387   -0.7081609849
H       -1.2766796950    0.7864940679   -0.5588420242
H        0.5252741184   -1.8805989920   -0.8924234054
C        0.4234612067    1.1310952288    1.1668771446
N        1.2587246914    1.1852487369    1.9823644921
6    
Image 8/11, Energy =  -168.9961774026 (+35.600 kcal/mol)
C       -0.2504095673   -1.1026249036   -1.0116495101
C       -0.6169730424    0.0073776895   -0.5403115348
H       -1.3248940210    0.7883299439   -0.6013582734
H        0.5686216537   -1.7399162210   -0.7533963977
C        0.4404992923    0.9005035167    1.0207462442
N        1.1831556848    1.1463299706    1.8859694738
6    
Image 9/11, Energy =  -169.0167554039 (+22.687 kcal/mol)
C       -0.2705582933   -1.0735670354   -1.0106239303
C       -0.5088435310    0.0878743144   -0.3873233787
H       -1.3085968948    0.7818393034   -0.5896825363
H        0.5834265607   -1.6879044802   -0.7048343761
C        0.4009580028    0.7806827530    0.9089335525
N        1.1036141557    1.1110751407    1.7835306699
6    
Image 10/11, Energy =  -169.0437609544 (+5.741 kcal/mol)
C       -0.2721093513   -1.0384613434   -0.9953339881
C       -0.4664498990    0.1336943575   -0.3047184047
H       -1.3026915424    0.8069996864   -0.5503883163
H        0.6404231461   -1.5232274468   -0.5526624607
C        0.3524169885    0.6272448767    0.7650856657
N        1.0484106581    0.9937498643    1.6380174988
