6    
Image 0/11, Energy =  -169.0522692293 (+0.000 kcal/mol)
C       -0.3689809232   -1.4576547332   -1.3858823910
C       -0.1536196575   -0.5941379364   -0.5627748996
H        0.0498937432    0.2058682499    0.1931202386
H       -0.5557149982   -2.2230003307   -2.1042277546
C        0.4068909404    1.6172446315    1.5286738868
N        0.6215308952    2.4516801189    2.3310909145
6    
Image 1/11, Energy =  -169.0519517618 (+0.199 kcal/mol)
C       -0.3623197484   -1.4491628001   -1.3519403963
C       -0.2692148148   -0.5219149411   -0.6060486501
H       -0.1256013001    0.2745562285    0.1074858867
H       -0.3986971201   -2.2503327699   -2.0207460048
C        0.4439763458    1.5622384609    1.5395783373
N        0.7118566377    2.3846158225    2.3316708257
6    
Image 2/11, Energy =  -169.0487500052 (+2.208 kcal/mol)
C       -0.3398608212   -1.4350458574   -1.3288274686
C       -0.3883388214   -0.4623437804   -0.6376677651
H       -0.3085203629    0.3594377608    0.0443267838
H       -0.2472456066   -2.2732243544   -1.9383554105
C        0.4869208737    1.4938301677    1.5443053428
N        0.7970447383    2.3173460625    2.3162185175
6    
Image 3/11, Energy =  -169.0442660232 (+5.022 kcal/mol)
C       -0.3021030443   -1.4009527344   -1.2923194101
C       -0.4943177870   -0.4086629386   -0.6581752977
H       -0.5227377751    0.4547016234   -0.0337154945
H       -0.0878378609   -2.2761384326   -1.8189910494
C        0.5141467121    1.4338324237    1.5005127253
N        0.8928497550    2.1972200576    2.3026885263
6    
Image 4/11, Energy =  -169.0394335390 (+8.055 kcal/mol)
C       -0.2592408313   -1.3585806607   -1.2247468772
C       -0.5797189555   -0.3390330338   -0.6927375871
H       -0.7368749452    0.5489598893   -0.1450408917
H        0.0689070160   -2.2495194943   -1.6474641131
C        0.5012269689    1.4056581647    1.4137885580
N        1.0057007458    1.9925151347    2.2962009111
6    
Image 5/11, Energy =  -169.0333922986 (+11.845 kcal/mol)
C       -0.2244771526   -1.2950142296   -1.1367064546
C       -0.6472408743   -0.2715671520   -0.7145809098
H       -0.9521052776    0.6270567175   -0.2834360070
H        0.2266467805   -2.1746138725   -1.4406974620
C        0.4901154818    1.3768390735    1.3227803202
N        1.1070610399    1.7372994631    2.2526405130
6    
Image 6/11, Energy =  -169.0262227713 (+16.344 kcal/mol)
C       -0.1974854951   -1.2272583053   -1.0494401289
C       -0.6982852585   -0.2057603138   -0.7015158802
H       -1.1215991920    0.6826647478   -0.4050063271
H        0.3626515974   -2.0631009726   -1.2395748878
C        0.4896484591    1.3245327654    1.2260546046
N        1.1650698880    1.4889220782    2.1694826184
6    
Image 7/11, Energy =  -169.0143618767 (+23.787 kcal/mol)
C       -0.1923126559   -1.1629901706   -0.9599981128
C       -0.7064718501   -0.1195026874   -0.6543778446
H       -1.2376610092    0.7363876740   -0.5040002880
H        0.4824118177   -1.9234443311   -1.0330152406
C        0.4783961031    1.2299264467    1.1048890404
N        1.1756375941    1.2396230667    2.0465024451
6    
Image 8/11, Energy =  -168.9953429788 (+35.722 kcal/mol)
C       -0.2247491618   -1.1074123409   -0.9236197396
C       -0.6357332343   -0.0106710961   -0.5365489880
H       -1.2995884505    0.7762633890   -0.5798004398
H        0.5696736194   -1.7730353796   -0.8326663599
C        0.4458824075    1.0540695287    0.9696374379
N        1.1445148198    1.0607858960    1.9029980910
6    
Image 9/11, Energy =  -169.0212962553 (+19.436 kcal/mol)
C       -0.2699655320   -1.0693027186   -0.9496599753
C       -0.4966356754    0.1107987097   -0.3570654979
H       -1.3070177856    0.7759493015   -0.5865595316
H        0.6061739892   -1.6772350067   -0.7205314216
C        0.3922351053    0.8259844232    0.8432013522
N        1.0752098985    1.0338052869    1.7706150752
6    
Image 10/11, Energy =  -169.0437609544 (+5.339 kcal/mol)
C       -0.2721093513   -1.0384613434   -0.9953339881
C       -0.4664498990    0.1336943575   -0.3047184047
H       -1.3026915424    0.8069996864   -0.5503883163
H        0.6404231461   -1.5232274468   -0.5526624607
C        0.3524169885    0.6272448767    0.7650856657
N        1.0484106581    0.9937498643    1.6380174988
