6    
Image 0/11, Energy =  -169.0522692293 (+0.000 kcal/mol)
C       -0.3689809232   -1.4576547332   -1.3858823910
C       -0.1536196575   -0.5941379364   -0.5627748996
H        0.0498937432    0.2058682499    0.1931202386
H       -0.5557149982   -2.2230003307   -2.1042277546
C        0.4068909404    1.6172446315    1.5286738868
N        0.6215308952    2.4516801189    2.3310909145
6    
Image 1/11, Energy =  -169.0494458691 (+1.772 kcal/mol)
C       -0.3598214368   -1.4444410263   -1.3698202712
C       -0.3053371806   -0.5397207470   -0.5608489142
H       -0.0820506935    0.3193123604    0.0954120935
H       -0.3959124099   -2.2642142537   -2.0290488994
C        0.4371306134    1.5558358566    1.5400768466
N        0.7059911074    2.3732278137    2.3242291442
6    
Image 2/11, Energy =  -169.0456744526 (+4.138 kcal/mol)
C       -0.3273339713   -1.4234503959   -1.3491749087
C       -0.4196675569   -0.4887105318   -0.5890861958
H       -0.2909841969    0.4081193522    0.0135830783
H       -0.2463647962   -2.2890026189   -1.9453504676
C        0.4953271554    1.4700076766    1.5681546652
N        0.7890233659    2.3230365140    2.3018738286
6    
Image 3/11, Energy =  -169.0429377963 (+5.856 kcal/mol)
C       -0.2993167628   -1.3933689896   -1.3169291432
C       -0.4927302213   -0.4255689521   -0.6297053050
H       -0.5329906670    0.4551430727   -0.0173162437
H       -0.0930920422   -2.2774881857   -1.8366362646
C        0.5539453399    1.4081257647    1.5208645270
N        0.8641843534    2.2331572896    2.2797224295
6    
Image 4/11, Energy =  -169.0353249693 (+10.633 kcal/mol)
C       -0.2807643565   -1.3584531546   -1.2542895385
C       -0.5269810802   -0.3383578695   -0.6419331554
H       -0.7507455247    0.5724903015   -0.1457650888
H        0.0661429736   -2.2578057845   -1.6476915332
C        0.5064906525    1.3898112222    1.4077020943
N        0.9858573347    1.9923152850    2.2819772216
6    
Image 5/11, Energy =  -169.0283686750 (+14.998 kcal/mol)
C       -0.2570586061   -1.3024057438   -1.1683397026
C       -0.5854251570   -0.2527833009   -0.6633987267
H       -0.9899084112    0.6579700980   -0.2911791042
H        0.2434347552   -2.1975557606   -1.4375981865
C        0.4923853681    1.3595349201    1.3195942032
N        1.0965720469    1.7352397873    2.2409215168
6    
Image 6/11, Energy =  -169.0209392411 (+19.660 kcal/mol)
C       -0.2393607868   -1.2444253919   -1.0774626829
C       -0.6320554277   -0.1764273966   -0.6696277619
H       -1.1767736117    0.7064226267   -0.3945028657
H        0.3930859312   -2.0995378327   -1.2495293046
C        0.4966343926    1.3083782212    1.2277072393
N        1.1584695019    1.5055897733    2.1634153752
6    
Image 7/11, Energy =  -169.0102242110 (+26.384 kcal/mol)
C       -0.2317740363   -1.1823253661   -0.9806919898
C       -0.6513753807   -0.1055279145   -0.6133418384
H       -1.2738246248    0.7612829149   -0.5019586039
H        0.5093371078   -1.9654300161   -1.0633680599
C        0.4806590135    1.2264039452    1.1113521093
N        1.1669779205    1.2655964359    2.0480083792
6    
Image 8/11, Energy =  -168.9930678560 (+37.149 kcal/mol)
C       -0.2468704092   -1.1221424348   -0.8921494941
C       -0.6234211979   -0.0037101991   -0.5122536587
H       -1.3238273006    0.8097191546   -0.5970570068
H        0.6119718642   -1.7928372983   -0.8550496539
C        0.4434216588    1.0821593158    0.9650804144
N        1.1387253847    1.0268114575    1.8914294029
6    
Image 9/11, Energy =  -169.0174047683 (+21.878 kcal/mol)
C       -0.2773227290   -1.0897249435   -0.9028551932
C       -0.5234101472    0.1218230308   -0.3717762483
H       -1.3135576334    0.8325506248   -0.6333962308
H        0.6556282830   -1.6502847833   -0.6743920938
C        0.3730258561    0.8386968409    0.8359470506
N        1.0856363705    0.9469392286    1.7464727160
6    
Image 10/11, Energy =  -169.0437609544 (+5.339 kcal/mol)
C       -0.2721093513   -1.0384613434   -0.9953339881
C       -0.4664498990    0.1336943575   -0.3047184047
H       -1.3026915424    0.8069996864   -0.5503883163
H        0.6404231461   -1.5232274468   -0.5526624607
C        0.3524169885    0.6272448767    0.7650856657
N        1.0484106581    0.9937498643    1.6380174988
