6    
Image 0/11, Energy =  -169.0522692293 (+0.286 kcal/mol)
C       -0.3689809232   -1.4576547332   -1.3858823910
C       -0.1536196575   -0.5941379364   -0.5627748996
H        0.0498937432    0.2058682499    0.1931202386
H       -0.5557149982   -2.2230003307   -2.1042277546
C        0.4068909404    1.6172446315    1.5286738868
N        0.6215308952    2.4516801189    2.3310909145
6    
Image 1/11, Energy =  -169.0527257544 (+0.000 kcal/mol)
C       -0.3438246506   -1.4537939543   -1.3571401430
C       -0.2706315075   -0.5219836780   -0.6062644045
H       -0.1464962570    0.2978134999    0.0962044298
H       -0.3898329895   -2.2770306679   -2.0060837518
C        0.3671998880    1.6455371317    1.5039751186
N        0.7835855164    2.3094576684    2.3693087469
6    
Image 2/11, Energy =  -169.0505628864 (+1.357 kcal/mol)
C       -0.3147022137   -1.4388956809   -1.3176182047
C       -0.3852063048   -0.4484509844   -0.6474379462
H       -0.3410680701    0.4066341986    0.0098351245
H       -0.2206356422   -2.3120158300   -1.8873070873
C        0.3354965711    1.6625704685    1.4748540199
N        0.9261156593    2.1301578276    2.3676740909
6    
Image 3/11, Energy =  -169.0472244956 (+3.452 kcal/mol)
C       -0.2824834302   -1.4066038931   -1.2631063227
C       -0.4939197008   -0.3788080331   -0.6882724929
H       -0.5375995374    0.5077560276   -0.0844343956
H       -0.0518678022   -2.3094136264   -1.7395434546
C        0.3269155814    1.6533605483    1.4459118599
N        1.0389548889    1.9337089755    2.3294448038
6    
Image 4/11, Energy =  -169.0426303241 (+6.335 kcal/mol)
C       -0.2481260772   -1.3552926680   -1.1951634838
C       -0.5952834854   -0.3121786591   -0.7259896101
H       -0.7390945761    0.5988970748   -0.1912746233
H        0.1147289103   -2.2656289195   -1.5609276366
C        0.3418154568    1.6037093792    1.4075044954
N        1.1259597712    1.7304937909    2.2658508571
6    
Image 5/11, Energy =  -169.0366264266 (+10.102 kcal/mol)
C       -0.2157718799   -1.2854649842   -1.1164147026
C       -0.6812869190   -0.2469652279   -0.7540427942
H       -0.9400278779    0.6777538991   -0.3095456472
H        0.2736329413   -2.1780033652   -1.3550240778
C        0.3725682484    1.5009336824    1.3492797598
N        1.1908854870    1.5317459936    2.1857474609
6    
Image 6/11, Energy =  -169.0280138817 (+15.507 kcal/mol)
C       -0.1964258005   -1.2062167572   -1.0408247859
C       -0.7320735603   -0.1791672131   -0.7515684178
H       -1.1238641940    0.7386798367   -0.4263189169
H        0.4142781142   -2.0483921678   -1.1379638718
C        0.4098201001    1.3337436609    1.2607330309
N        1.2282653404    1.3613526376    2.0959429603
6    
Image 7/11, Energy =  -169.0120521544 (+25.523 kcal/mol)
C       -0.2101159284   -1.1426506788   -1.0044549048
C       -0.7107643524   -0.0977710885   -0.6801210016
H       -1.2611644371    0.7734354953   -0.5228658705
H        0.5172422504   -1.8926932659   -0.9360935672
C        0.4416388052    1.1161861245    1.1425455476
N        1.2231636622    1.2434934102    2.0009897957
6    
Image 8/11, Energy =  -168.9962095752 (+35.464 kcal/mol)
C       -0.2521017274   -1.1071225378   -1.0124967807
C       -0.6147172349    0.0007663608   -0.5348186425
H       -1.3285275706    0.7771612328   -0.5801577220
H        0.5733094678   -1.7452322116   -0.7799511606
C        0.4535624527    0.9029231068    1.0129913839
N        1.1684746123    1.1715040456    1.8944329210
6    
Image 9/11, Energy =  -169.0185482941 (+21.447 kcal/mol)
C       -0.2719625407   -1.0757313618   -1.0098519562
C       -0.5069208751    0.0856173936   -0.3812100654
H       -1.3135117928    0.7752545914   -0.5708757088
H        0.5941013435   -1.6770996172   -0.7120044684
C        0.4053041628    0.7756593125    0.8955899561
N        1.0929897024    1.1162996774    1.7783522409
6    
Image 10/11, Energy =  -169.0437609544 (+5.625 kcal/mol)
C       -0.2721093513   -1.0384613434   -0.9953339881
C       -0.4664498990    0.1336943575   -0.3047184047
H       -1.3026915424    0.8069996864   -0.5503883163
H        0.6404231461   -1.5232274468   -0.5526624607
C        0.3524169885    0.6272448767    0.7650856657
N        1.0484106581    0.9937498643    1.6380174988
