6    
Image 0/11, Energy =  -169.0522692293 (+0.220 kcal/mol)
C       -0.3689809232   -1.4576547332   -1.3858823910
C       -0.1536196575   -0.5941379364   -0.5627748996
H        0.0498937432    0.2058682499    0.1931202386
H       -0.5557149982   -2.2230003307   -2.1042277546
C        0.4068909404    1.6172446315    1.5286738868
N        0.6215308952    2.4516801189    2.3310909145
6    
Image 1/11, Energy =  -169.0526202828 (+0.000 kcal/mol)
C       -0.3420217569   -1.4522965764   -1.3542290477
C       -0.2702346018   -0.5174069696   -0.6072827828
H       -0.1494455361    0.3042576054    0.0939474588
H       -0.3873066132   -2.2784307730   -1.9993313868
C        0.3601616535    1.6464890942    1.4988511096
N        0.7888468544    2.2973876189    2.3680446448
6    
Image 2/11, Energy =  -169.0503242273 (+1.441 kcal/mol)
C       -0.3120309699   -1.4344362015   -1.3132582469
C       -0.3863188792   -0.4404338414   -0.6496723671
H       -0.3476343045    0.4173013139    0.0049068131
H       -0.2144722897   -2.3130791861   -1.8737218034
C        0.3273411084    1.6606326940    1.4703319900
N        0.9331153347    2.1100152204    2.3614136111
6    
Image 3/11, Energy =  -169.0468170978 (+3.642 kcal/mol)
C       -0.2783077995   -1.3991315593   -1.2570126105
C       -0.4976788016   -0.3680914094   -0.6906668273
H       -0.5487120918    0.5225131204   -0.0936318174
H       -0.0412689798   -2.3079307972   -1.7182977210
C        0.3172084286    1.6481517436    1.4419872478
N        1.0487592439    1.9044889005    2.3176217260
6    
Image 4/11, Energy =  -169.0421195874 (+6.589 kcal/mol)
C       -0.2434337585   -1.3467042357   -1.1868011820
C       -0.5995544010   -0.3013584841   -0.7287176724
H       -0.7517555509    0.6135543595   -0.2032980567
H        0.1270569863   -2.2600747283   -1.5373385726
C        0.3310972354    1.5942444703    1.4072947346
N        1.1365894885    1.7003386163    2.2488607473
6    
Image 5/11, Energy =  -169.0361819595 (+10.315 kcal/mol)
C       -0.2123263760   -1.2788283518   -1.1086115536
C       -0.6838902904   -0.2393851172   -0.7565258964
H       -0.9498889566    0.6870080914   -0.3199525856
H        0.2834085416   -2.1705547567   -1.3379975984
C        0.3624555417    1.4886141692    1.3530623603
N        1.2002415396    1.5131459627    2.1700252722
6    
Image 6/11, Energy =  -169.0278100125 (+15.569 kcal/mol)
C       -0.1956564212   -1.2025328469   -1.0382650734
C       -0.7336395673   -0.1747404988   -0.7556834776
H       -1.1300281568    0.7427651642   -0.4349797457
H        0.4195022123   -2.0426241855   -1.1258940684
C        0.4024799443    1.3256371212    1.2673685891
N        1.2373419887    1.3514952430    2.0874537750
6    
Image 7/11, Energy =  -169.0120238848 (+25.475 kcal/mol)
C       -0.2107238128   -1.1415535300   -1.0053963325
C       -0.7115812815   -0.0956759403   -0.6837810357
H       -1.2643602765    0.7741282997   -0.5267008031
H        0.5192885330   -1.8884695514   -0.9277717093
C        0.4394608673    1.1138611721    1.1454168945
N        1.2279159705    1.2377095467    1.9982329851
6    
Image 8/11, Energy =  -168.9962095752 (+35.398 kcal/mol)
C       -0.2521017274   -1.1071225378   -1.0124967807
C       -0.6147172349    0.0007663608   -0.5348186425
H       -1.3285275706    0.7771612328   -0.5801577220
H        0.5733094678   -1.7452322116   -0.7799511606
C        0.4535624527    0.9029231068    1.0129913839
N        1.1684746123    1.1715040456    1.8944329210
6    
Image 9/11, Energy =  -169.0185482941 (+21.380 kcal/mol)
C       -0.2719625407   -1.0757313618   -1.0098519562
C       -0.5069208751    0.0856173936   -0.3812100654
H       -1.3135117928    0.7752545914   -0.5708757088
H        0.5941013435   -1.6770996172   -0.7120044684
C        0.4053041628    0.7756593125    0.8955899561
N        1.0929897024    1.1162996774    1.7783522409
6    
Image 10/11, Energy =  -169.0437609544 (+5.559 kcal/mol)
C       -0.2721093513   -1.0384613434   -0.9953339881
C       -0.4664498990    0.1336943575   -0.3047184047
H       -1.3026915424    0.8069996864   -0.5503883163
H        0.6404231461   -1.5232274468   -0.5526624607
C        0.3524169885    0.6272448767    0.7650856657
N        1.0484106581    0.9937498643    1.6380174988
