6    
Image 0/11, Energy =  -169.0522692293 (+0.335 kcal/mol)
C       -0.3689809232   -1.4576547332   -1.3858823910
C       -0.1536196575   -0.5941379364   -0.5627748996
H        0.0498937432    0.2058682499    0.1931202386
H       -0.5557149982   -2.2230003307   -2.1042277546
C        0.4068909404    1.6172446315    1.5286738868
N        0.6215308952    2.4516801189    2.3310909145
6    
Image 1/11, Energy =  -169.0528029011 (+0.000 kcal/mol)
C       -0.3504554066   -1.4533305513   -1.3632079098
C       -0.2745702438   -0.5269120756   -0.6065857249
H       -0.1416942795    0.2840586917    0.1064774590
H       -0.3906820887   -2.2732062415   -2.0181319336
C        0.3923200793    1.6267258597    1.5188262984
N        0.7650819390    2.3426643170    2.3626218073
6    
Image 2/11, Energy =  -169.0506980449 (+1.321 kcal/mol)
C       -0.3282020397   -1.4407227147   -1.3339851046
C       -0.3933693655   -0.4600394742   -0.6490499815
H       -0.3331595333    0.3790823310    0.0283366001
H       -0.2235462029   -2.3071575224   -1.9126223150
C        0.3828250869    1.6229051681    1.4966334114
N        0.8954520539    2.2059322118    2.3706873872
6    
Image 3/11, Energy =  -169.0473649879 (+3.412 kcal/mol)
C       -0.2992954172   -1.4122375697   -1.2864746407
C       -0.5042992025   -0.3983574073   -0.6902664575
H       -0.5262544646    0.4745460306   -0.0604348559
H       -0.0588844647   -2.3079069662   -1.7769489526
C        0.3826070421    1.6068947972    1.4611529368
N        1.0061265062    2.0370611149    2.3529719685
6    
Image 4/11, Energy =  -169.0430475514 (+6.122 kcal/mol)
C       -0.2653767626   -1.3694862050   -1.2243543818
C       -0.6023732851   -0.3358025337   -0.7241565987
H       -0.7187857556    0.5649551425   -0.1625057348
H        0.0999474302   -2.2720724938   -1.6082553828
C        0.3927155434    1.5741970219    1.4107518651
N        1.0938728290    1.8382090674    2.3085202325
6    
Image 5/11, Energy =  -169.0375290651 (+9.584 kcal/mol)
C       -0.2312249925   -1.3072739431   -1.1456424534
C       -0.6820124958   -0.2722957215   -0.7497487076
H       -0.9107473893    0.6466041961   -0.2756575380
H        0.2518923296   -2.1958810737   -1.4090680107
C        0.4124496253    1.5067821236    1.3422091941
N        1.1596429222    1.6220644171    2.2379075157
6    
Image 6/11, Energy =  -169.0298092215 (+14.429 kcal/mol)
C       -0.2067143237   -1.2294808592   -1.0631447201
C       -0.7306583737   -0.2032389276   -0.7513082863
H       -1.0939285478    0.7148332274   -0.3907444207
H        0.3914659309   -2.0768991873   -1.1906986086
C        0.4413424314    1.3760422953    1.2515094922
N        1.1984928824    1.4187434493    2.1443865434
6    
Image 7/11, Energy =  -169.0144138386 (+24.090 kcal/mol)
C       -0.2117638771   -1.1543338198   -1.0058579105
C       -0.7190762960   -0.1113247984   -0.6917516653
H       -1.2539496027    0.7618313558   -0.5038998404
H        0.5112644602   -1.9072364409   -0.9579308075
C        0.4679200227    1.1638838838    1.1289415388
N        1.2056052928    1.2471798165    2.0304986842
6    
Image 8/11, Energy =  -168.9960948396 (+35.585 kcal/mol)
C       -0.2559612727   -1.1042400808   -0.9983233734
C       -0.6159164603    0.0176646587   -0.5343982507
H       -1.3552536705    0.7733895949   -0.5963799969
H        0.5916157543   -1.7070190277   -0.7387124859
C        0.4686827076    0.9014358962    0.9792208846
N        1.1668329415    1.1187689552    1.8885932214
6    
Image 9/11, Energy =  -169.0158588623 (+23.183 kcal/mol)
C       -0.2715429772   -1.0796738699   -0.9999786192
C       -0.5205572526    0.0899712173   -0.4007574841
H       -1.3369806078    0.7745063077   -0.5821432891
H        0.6070713994   -1.6598306474   -0.6911462064
C        0.4199037572    0.7879930198    0.8868644932
N        1.1021056810    1.0870339684    1.7871611039
6    
Image 10/11, Energy =  -169.0437609544 (+5.674 kcal/mol)
C       -0.2721093513   -1.0384613434   -0.9953339881
C       -0.4664498990    0.1336943575   -0.3047184047
H       -1.3026915424    0.8069996864   -0.5503883163
H        0.6404231461   -1.5232274468   -0.5526624607
C        0.3524169885    0.6272448767    0.7650856657
N        1.0484106581    0.9937498643    1.6380174988
