6    
Image 0/11, Energy =  -169.0522692293 (+0.066 kcal/mol)
C       -0.3689809232   -1.4576547332   -1.3858823910
C       -0.1536196575   -0.5941379364   -0.5627748996
H        0.0498937432    0.2058682499    0.1931202386
H       -0.5557149982   -2.2230003307   -2.1042277546
C        0.4068909404    1.6172446315    1.5286738868
N        0.6215308952    2.4516801189    2.3310909145
6    
Image 1/11, Energy =  -169.0523741130 (+0.000 kcal/mol)
C       -0.3511582596   -1.4516330639   -1.3684040196
C       -0.2747431902   -0.5220182894   -0.6077947661
H       -0.1351251324    0.2743675996    0.1230810564
H       -0.4017737278   -2.2649206867   -2.0263128003
C        0.4385015786    1.5779413478    1.5417805943
N        0.7242987314    2.3862630918    2.3376499327
6    
Image 2/11, Energy =  -169.0495097898 (+1.797 kcal/mol)
C       -0.3308325542   -1.4358164387   -1.3355596297
C       -0.3928299261   -0.4551845595   -0.6475484443
H       -0.3210233346    0.3622294810    0.0575250648
H       -0.2408800411   -2.2906858443   -1.9321612224
C        0.4606919375    1.5292694540    1.5220586936
N        0.8248739183    2.2901879076    2.3356855372
6    
Image 3/11, Energy =  -169.0455440206 (+4.286 kcal/mol)
C       -0.2976356569   -1.4112188379   -1.2830501655
C       -0.5073684208   -0.3930410035   -0.6888669020
H       -0.5158848585    0.4606374126   -0.0358991724
H       -0.0792637737   -2.2902622035   -1.8033361497
C        0.4683720255    1.4845916075    1.4812511458
N        0.9317806838    2.1492930240    2.3299012437
6    
Image 4/11, Energy =  -169.0408324925 (+7.242 kcal/mol)
C       -0.2542783042   -1.3677021155   -1.2181677322
C       -0.6144854811   -0.3372015959   -0.7224029491
H       -0.7281807633    0.5527447600   -0.1438544968
H        0.0839624891   -2.2580617759   -1.6419401803
C        0.4783407460    1.4459129564    1.4183382534
N        1.0346413120    1.9643077704    2.3080271049
6    
Image 5/11, Energy =  -169.0357152722 (+10.454 kcal/mol)
C       -0.2137836379   -1.3042450121   -1.1331373781
C       -0.6967145730   -0.2790545566   -0.7431274508
H       -0.9279311135    0.6405190913   -0.2635167334
H        0.2392725911   -2.1947493966   -1.4511030760
C        0.4778420936    1.4123698313    1.3310397012
N        1.1213146386    1.7251600423    2.2598449365
6    
Image 6/11, Energy =  -169.0293423973 (+14.453 kcal/mol)
C       -0.1881738949   -1.2273604245   -1.0377394223
C       -0.7447389784   -0.2127995912   -0.7396716027
H       -1.1065411541    0.7191593116   -0.3873817686
H        0.3870747579   -2.0882433815   -1.2308713574
C        0.4778922791    1.3542445875    1.2285165312
N        1.1744869893    1.4549994971    2.1671476193
6    
Image 7/11, Energy =  -169.0169004890 (+22.260 kcal/mol)
C       -0.1927423659   -1.1512725638   -0.9732996712
C       -0.7288650315   -0.1273004586   -0.6825778790
H       -1.2452527120    0.7739507872   -0.4938800005
H        0.5089673069   -1.9410770202   -0.9967833709
C        0.4744007836    1.2263691739    1.1078113511
N        1.1834920184    1.2193300793    2.0387295714
6    
Image 8/11, Energy =  -168.9965475534 (+35.032 kcal/mol)
C       -0.2288436263   -1.1138289989   -0.9747189725
C       -0.6291175359   -0.0125873982   -0.5485654314
H       -1.3119937472    0.7807534367   -0.5534590476
H        0.5674544259   -1.8008935905   -0.8302447537
C        0.4524049715    1.0267442909    0.9860085495
N        1.1500955120    1.1198122572    1.9209796557
6    
Image 9/11, Energy =  -169.0152972492 (+23.266 kcal/mol)
C       -0.2683677791   -1.0767997742   -0.9901054069
C       -0.5005154950    0.0875066974   -0.3811003835
H       -1.3115336876    0.7749789326   -0.5574049482
H        0.5947787131   -1.7107399982   -0.7425372017
C        0.4051409711    0.8326788398    0.8768579444
N        1.0804972775    1.0923752987    1.7942899951
6    
Image 10/11, Energy =  -169.0437609544 (+5.405 kcal/mol)
C       -0.2721093513   -1.0384613434   -0.9953339881
C       -0.4664498990    0.1336943575   -0.3047184047
H       -1.3026915424    0.8069996864   -0.5503883163
H        0.6404231461   -1.5232274468   -0.5526624607
C        0.3524169885    0.6272448767    0.7650856657
N        1.0484106581    0.9937498643    1.6380174988
