6    
Image 0/11, Energy =  -169.0522692293 (+0.326 kcal/mol)
C       -0.3689809232   -1.4576547332   -1.3858823910
C       -0.1536196575   -0.5941379364   -0.5627748996
H        0.0498937432    0.2058682499    0.1931202386
H       -0.5557149982   -2.2230003307   -2.1042277546
C        0.4068909404    1.6172446315    1.5286738868
N        0.6215308952    2.4516801189    2.3310909145
6    
Image 1/11, Energy =  -169.0527887200 (+0.000 kcal/mol)
C       -0.3464416151   -1.4546629849   -1.3606265332
C       -0.2718370500   -0.5245553130   -0.6061277294
H       -0.1453682990    0.2904937018    0.1005587020
H       -0.3906411435   -2.2753873106   -2.0122220786
C        0.3774368417    1.6405088025    1.5107183659
N        0.7768512656    2.3236031041    2.3676992694
6    
Image 2/11, Energy =  -169.0507180836 (+1.299 kcal/mol)
C       -0.3196863731   -1.4400547519   -1.3258651963
C       -0.3874074030   -0.4563631114   -0.6475365148
H       -0.3378947530    0.3930940316    0.0172329968
H       -0.2239270554   -2.3107152031   -1.9002943519
C        0.3547522372    1.6502936463    1.4840702719
N        0.9141633468    2.1637453880    2.3723927916
6    
Image 3/11, Energy =  -169.0474573981 (+3.345 kcal/mol)
C       -0.2886281777   -1.4103894331   -1.2764209099
C       -0.4961895459   -0.3904025123   -0.6855359326
H       -0.5314418276    0.4917024359   -0.0742914596
H       -0.0581938909   -2.3103987892   -1.7586353649
C        0.3490541167    1.6402693809    1.4512602183
N        1.0253993249    1.9792189172    2.3436234471
6    
Image 4/11, Energy =  -169.0430477961 (+6.113 kcal/mol)
C       -0.2560657625   -1.3639856461   -1.2103302115
C       -0.5944939722   -0.3262891162   -0.7216805923
H       -0.7261465013    0.5818970644   -0.1773247039
H        0.1038047356   -2.2712466170   -1.5879165503
C        0.3616103986    1.5984282892    1.4087852925
N        1.1112911013    1.7811960244    2.2884667646
6    
Image 5/11, Energy =  -169.0372385155 (+9.758 kcal/mol)
C       -0.2255916613   -1.2986066887   -1.1316495680
C       -0.6787170930   -0.2620319080   -0.7497169052
H       -0.9232404405    0.6614277547   -0.2925692636
H        0.2611470995   -2.1883598128   -1.3870424450
C        0.3904431421    1.5087384154    1.3472510818
N        1.1759589527    1.5788322375    2.2137270993
6    
Image 6/11, Energy =  -169.0287402930 (+15.091 kcal/mol)
C       -0.2055285996   -1.2178825196   -1.0529626186
C       -0.7327151791   -0.1899235750   -0.7516708108
H       -1.1135114338    0.7283815941   -0.4144287931
H        0.4076667605   -2.0570773405   -1.1564730683
C        0.4270896337    1.3547097100    1.2558488875
N        1.2169988182    1.3817921282    2.1196864028
6    
Image 7/11, Energy =  -169.0123196405 (+25.395 kcal/mol)
C       -0.2157069087   -1.1471430193   -1.0078924472
C       -0.7124343475   -0.1004149712   -0.6828015656
H       -1.2624728371    0.7693618435   -0.5193343653
H        0.5201552806   -1.8879586897   -0.9306120196
C        0.4530528507    1.1343076454    1.1311718199
N        1.2174059619    1.2318471882    2.0094685771
6    
Image 8/11, Energy =  -168.9961668813 (+35.531 kcal/mol)
C       -0.2539520327   -1.1081596702   -1.0112545564
C       -0.6124553532    0.0039693045   -0.5335634784
H       -1.3314888728    0.7756069970   -0.5792328422
H        0.5775147148   -1.7367850230   -0.7702540324
C        0.4542632398    0.9107631506    1.0023718661
N        1.1661183041    1.1546052375    1.8919330424
6    
Image 9/11, Energy =  -169.0201896199 (+20.456 kcal/mol)
C       -0.2721667823   -1.0746368801   -1.0073872624
C       -0.5026766997    0.0910278727   -0.3775661027
H       -1.3152644828    0.7746645841   -0.5704732790
H        0.5970464589   -1.6726298078   -0.7046972642
C        0.4034951359    0.7756824556    0.8854252388
N        1.0895663701    1.1058917716    1.7746986675
6    
Image 10/11, Energy =  -169.0437609544 (+5.665 kcal/mol)
C       -0.2721093513   -1.0384613434   -0.9953339881
C       -0.4664498990    0.1336943575   -0.3047184047
H       -1.3026915424    0.8069996864   -0.5503883163
H        0.6404231461   -1.5232274468   -0.5526624607
C        0.3524169885    0.6272448767    0.7650856657
N        1.0484106581    0.9937498643    1.6380174988
