6    
Image 0/11, Energy =  -169.0522692293 (+0.349 kcal/mol)
C       -0.3689809232   -1.4576547332   -1.3858823910
C       -0.1536196575   -0.5941379364   -0.5627748996
H        0.0498937432    0.2058682499    0.1931202386
H       -0.5557149982   -2.2230003307   -2.1042277546
C        0.4068909404    1.6172446315    1.5286738868
N        0.6215308952    2.4516801189    2.3310909145
6    
Image 1/11, Energy =  -169.0528250634 (+0.000 kcal/mol)
C       -0.3466163640   -1.4529211205   -1.3641432267
C       -0.2748802370   -0.5274526405   -0.6053726633
H       -0.1436765231    0.2863669457    0.1024924676
H       -0.3914159791   -2.2749331949   -2.0148349733
C        0.3843644764    1.6346012657    1.5152891769
N        0.7722246265    2.3343387443    2.3665692149
6    
Image 2/11, Energy =  -169.0507456196 (+1.305 kcal/mol)
C       -0.3211275063   -1.4399149836   -1.3311549632
C       -0.3932249229   -0.4598603612   -0.6466923163
H       -0.3349708051    0.3860666309    0.0218499028
H       -0.2244181307   -2.3094688533   -1.9066336690
C        0.3673379067    1.6397546693    1.4898981135
N        0.9064034577    2.1834228977    2.3727329297
6    
Image 3/11, Energy =  -169.0474998365 (+3.342 kcal/mol)
C       -0.2926170358   -1.4118714548   -1.2817359377
C       -0.5016324720   -0.3946615010   -0.6883512602
H       -0.5268258661    0.4820952587   -0.0683068395
H       -0.0594794881   -2.3095956377   -1.7673799126
C        0.3631198147    1.6291191548    1.4559616523
N        1.0174350467    2.0049141795    2.3498122963
6    
Image 4/11, Energy =  -169.0431276233 (+6.085 kcal/mol)
C       -0.2600375842   -1.3672699632   -1.2161824015
C       -0.5992287107   -0.3316687740   -0.7246185913
H       -0.7212028599    0.5714307980   -0.1702423911
H        0.1011577022   -2.2714678432   -1.5985051614
C        0.3748096185    1.5914898354    1.4098239161
N        1.1045018335    1.8074859459    2.2997246286
6    
Image 5/11, Energy =  -169.0375422410 (+9.590 kcal/mol)
C       -0.2267837082   -1.3038404679   -1.1374505510
C       -0.6817627137   -0.2686396634   -0.7512593865
H       -0.9132395696    0.6519028057   -0.2818823606
H        0.2539387911   -2.1935373198   -1.4021074990
C        0.4009321247    1.5114127175    1.3462866964
N        1.1669150754    1.6027019263    2.2264131005
6    
Image 6/11, Energy =  -169.0294838280 (+14.647 kcal/mol)
C       -0.2041105319   -1.2232383077   -1.0552871307
C       -0.7364924478   -0.1983102630   -0.7549077389
H       -1.1011978733    0.7212815140   -0.4023631236
H        0.3989622218   -2.0672028866   -1.1754044906
C        0.4350562930    1.3668109580    1.2548822717
N        1.2077823380    1.4006589829    2.1330802118
6    
Image 7/11, Energy =  -169.0131500662 (+24.896 kcal/mol)
C       -0.2147209579   -1.1485791446   -1.0063563519
C       -0.7196991344   -0.1047967656   -0.6891170210
H       -1.2631328234    0.7668805845   -0.5180249721
H        0.5198976595   -1.8893224636   -0.9330374690
C        0.4630755944    1.1449178780    1.1280522901
N        1.2145796617    1.2308999083    2.0184835233
6    
Image 8/11, Energy =  -168.9961699114 (+35.552 kcal/mol)
C       -0.2577826984   -1.1071023837   -1.0107701597
C       -0.6115592176    0.0103232732   -0.5314488726
H       -1.3417128909    0.7715712425   -0.5878890635
H        0.5835125910   -1.7165428194   -0.7496213485
C        0.4600502405    0.9062719738    0.9902248678
N        1.1674919756    1.1354787100    1.8895045753
6    
Image 9/11, Energy =  -169.0187539582 (+21.380 kcal/mol)
C       -0.2730993170   -1.0766621669   -1.0062817828
C       -0.5120293465    0.0903349109   -0.3886226250
H       -1.3247016552    0.7712109121   -0.5810632665
H        0.6020987162   -1.6516439561   -0.6849574616
C        0.4088333741    0.7791558535    0.8841260909
N        1.0988982284    1.0876044426    1.7767990429
6    
Image 10/11, Energy =  -169.0437609544 (+5.688 kcal/mol)
C       -0.2721093513   -1.0384613434   -0.9953339881
C       -0.4664498990    0.1336943575   -0.3047184047
H       -1.3026915424    0.8069996864   -0.5503883163
H        0.6404231461   -1.5232274468   -0.5526624607
C        0.3524169885    0.6272448767    0.7650856657
N        1.0484106581    0.9937498643    1.6380174988
