6    
Image 0/11, Energy =  -169.0522692293 (+0.306 kcal/mol)
C       -0.3689809232   -1.4576547332   -1.3858823910
C       -0.1536196575   -0.5941379364   -0.5627748996
H        0.0498937432    0.2058682499    0.1931202386
H       -0.5557149982   -2.2230003307   -2.1042277546
C        0.4068909404    1.6172446315    1.5286738868
N        0.6215308952    2.4516801189    2.3310909145
6    
Image 1/11, Energy =  -169.0527575871 (+0.000 kcal/mol)
C       -0.3447558683   -1.4543093794   -1.3585079373
C       -0.2709363911   -0.5231321022   -0.6060253741
H       -0.1459893474    0.2954457560    0.0977152622
H       -0.3902552484   -2.2766484202   -2.0085402276
C        0.3704198671    1.6441973036    1.5060732678
N        0.7815169879    2.3144468420    2.3692850050
6    
Image 2/11, Energy =  -169.0506215846 (+1.340 kcal/mol)
C       -0.3160612183   -1.4396889071   -1.3198936829
C       -0.3856348080   -0.4505784567   -0.6475315288
H       -0.3401537505    0.4031080938    0.0121007647
H       -0.2215817300   -2.3120198127   -1.8911647632
C        0.3401363616    1.6605325709    1.4771323847
N        0.9232951448    2.1386465113    2.3693568226
6    
Image 3/11, Energy =  -169.0473181309 (+3.413 kcal/mol)
C       -0.2843771918   -1.4085431680   -1.2660887981
C       -0.4940181369   -0.3818014307   -0.6883519476
H       -0.5355009148    0.5027975178   -0.0810914698
H       -0.0539441922   -2.3098329762   -1.7456690474
C        0.3323777003    1.6513757138    1.4473899542
N        1.0354627350    1.9460043424    2.3338113067
6    
Image 4/11, Energy =  -169.0427783365 (+6.262 kcal/mol)
C       -0.2504713485   -1.3581172188   -1.1992097706
C       -0.5948122137   -0.3163702913   -0.7251214234
H       -0.7349250806    0.5935174298   -0.1870675882
H        0.1112720320   -2.2672823468   -1.5691122080
C        0.3467574744    1.6037878342    1.4077409255
N        1.1221791359    1.7444645915    2.2727700634
6    
Image 5/11, Energy =  -169.0368159843 (+10.004 kcal/mol)
C       -0.2184872732   -1.2890240907   -1.1209768815
C       -0.6809530671   -0.2511717393   -0.7530545928
H       -0.9352682218    0.6732945201   -0.3050215741
H        0.2702355699   -2.1809816091   -1.3632923694
C        0.3773710898    1.5043799174    1.3487164026
N        1.1871019023    1.5435029995    2.1936290144
6    
Image 6/11, Energy =  -169.0281887809 (+15.417 kcal/mol)
C       -0.1989677087   -1.2092210368   -1.0441872131
C       -0.7320384456   -0.1818325837   -0.7513643946
H       -1.1211052615    0.7360352919   -0.4229901950
H        0.4126760867   -2.0504867761   -1.1423011606
C        0.4141467845    1.3395068129    1.2588052332
N        1.2252885445    1.3659982891    2.1020377293
6    
Image 7/11, Energy =  -169.0121056709 (+25.509 kcal/mol)
C       -0.2112052664   -1.1438351537   -1.0051915976
C       -0.7108175944   -0.0985546860   -0.6801999010
H       -1.2606054956    0.7724928027   -0.5209097412
H        0.5176123784   -1.8923936990   -0.9359330338
C        0.4440975058    1.1209701988    1.1392811714
N        1.2209184723    1.2413205340    2.0029531013
6    
Image 8/11, Energy =  -168.9962095752 (+35.484 kcal/mol)
C       -0.2521017274   -1.1071225378   -1.0124967807
C       -0.6147172349    0.0007663608   -0.5348186425
H       -1.3285275706    0.7771612328   -0.5801577220
H        0.5733094678   -1.7452322116   -0.7799511606
C        0.4535624527    0.9029231068    1.0129913839
N        1.1684746123    1.1715040456    1.8944329210
6    
Image 9/11, Energy =  -169.0185482941 (+21.467 kcal/mol)
C       -0.2719625407   -1.0757313618   -1.0098519562
C       -0.5069208751    0.0856173936   -0.3812100654
H       -1.3135117928    0.7752545914   -0.5708757088
H        0.5941013435   -1.6770996172   -0.7120044684
C        0.4053041628    0.7756593125    0.8955899561
N        1.0929897024    1.1162996774    1.7783522409
6    
Image 10/11, Energy =  -169.0437609544 (+5.645 kcal/mol)
C       -0.2721093513   -1.0384613434   -0.9953339881
C       -0.4664498990    0.1336943575   -0.3047184047
H       -1.3026915424    0.8069996864   -0.5503883163
H        0.6404231461   -1.5232274468   -0.5526624607
C        0.3524169885    0.6272448767    0.7650856657
N        1.0484106581    0.9937498643    1.6380174988
