6    
Image 0/11, Energy =  -169.0522692293 (+0.811 kcal/mol)
C       -0.3689809232   -1.4576547332   -1.3858823910
C       -0.1536196575   -0.5941379364   -0.5627748996
H        0.0498937432    0.2058682499    0.1931202386
H       -0.5557149982   -2.2230003307   -2.1042277546
C        0.4068909404    1.6172446315    1.5286738868
N        0.6215308952    2.4516801189    2.3310909145
6    
Image 1/11, Energy =  -169.0535614811 (+0.000 kcal/mol)
C       -0.3542536992   -1.4791954801   -1.3906627288
C       -0.2640941334   -0.5632865254   -0.6217290058
H       -0.1383106051    0.2431127748    0.0886390554
H       -0.4176323546   -2.2892179981   -2.0581340512
C        0.3798795262    1.6907892204    1.5737264362
N        0.7944112704    2.3977980076    2.4081602988
6    
Image 2/11, Energy =  -169.0521427930 (+0.890 kcal/mol)
C       -0.3287139531   -1.4696339213   -1.3634156786
C       -0.3523887542   -0.5114912501   -0.6429426397
H       -0.2996738188    0.3257555822    0.0374799942
H       -0.2823439244   -2.3168603698   -1.9844889148
C        0.3255773875    1.7216473450    1.5540190795
N        0.9375430634    2.2505826124    2.3993481623
6    
Image 3/11, Energy =  -169.0501830813 (+2.120 kcal/mol)
C       -0.3036057221   -1.4488528910   -1.3240506716
C       -0.4243769670   -0.4530171552   -0.6679298027
H       -0.4345945811    0.4132362667   -0.0276312035
H       -0.1649468589   -2.3304086368   -1.8793994032
C        0.2951261322    1.7391729763    1.5283524182
N        1.0323979963    2.0798694386    2.3706586646
6    
Image 4/11, Energy =  -169.0461469319 (+4.653 kcal/mol)
C       -0.2643324538   -1.4021273062   -1.2433660837
C       -0.5240485083   -0.3649007380   -0.7037410032
H       -0.6379846176    0.5412732775   -0.1441427614
H        0.0092314186   -2.3168825712   -1.6822355775
C        0.2762986305    1.7614342347    1.4920121017
N        1.1408355303    1.7812030999    2.2814733238
6    
Image 5/11, Energy =  -169.0410123368 (+7.875 kcal/mol)
C       -0.2235551325   -1.3391574674   -1.1479836222
C       -0.6307871623   -0.2882158872   -0.7467566197
H       -0.8669745100    0.6432556280   -0.2920526443
H        0.1863726478   -2.2569220818   -1.4532736682
C        0.3168881726    1.7482582718    1.4679196351
N        1.2180559857    1.4927815322    2.1721469204
6    
Image 6/11, Energy =  -169.0356482972 (+11.241 kcal/mol)
C       -0.1932558105   -1.2573292666   -1.0492065774
C       -0.7232614522   -0.2175638028   -0.7925045341
H       -1.0793249325    0.7201493802   -0.4583598466
H        0.3340524006   -2.1515770272   -1.2090252946
C        0.3814578206    1.6629289215    1.4419781777
N        1.2803319769    1.2433917884    2.0671180818
6    
Image 7/11, Energy =  -169.0297859458 (+14.919 kcal/mol)
C       -0.1728729798   -1.1594985706   -0.9669553271
C       -0.7965790825   -0.1509184749   -0.8275561628
H       -1.2524106679    0.7708616083   -0.5982019288
H        0.4596695214   -1.9975710286   -0.9804799569
C        0.4165740566    1.4331023459    1.3688390317
N        1.3456191563    1.1040241109    2.0043543554
6    
Image 8/11, Energy =  -169.0163275567 (+23.365 kcal/mol)
C       -0.1894445153   -1.1087969509   -0.9553820655
C       -0.7637773563   -0.0776449603   -0.7506881635
H       -1.3029669806    0.8098513013   -0.6146367444
H        0.5298762341   -1.8623543042   -0.8327347460
C        0.4193261472    1.1372184957    1.1963621680
N        1.3069864753    1.1017264089    1.9570795633
6    
Image 9/11, Energy =  -168.9961680409 (+36.015 kcal/mol)
C       -0.2581207495   -1.1002376524   -1.0100077411
C       -0.6124775945    0.0166256068   -0.5450151644
H       -1.3057571086    0.8093163856   -0.6177902215
H        0.5455328763   -1.7513023591   -0.7384836309
C        0.4376748554    0.8938449299    1.0275237010
N        1.1931477251    1.1317530797    1.8837730690
6    
Image 10/11, Energy =  -169.0437609544 (+6.150 kcal/mol)
C       -0.2721093513   -1.0384613434   -0.9953339881
C       -0.4664498990    0.1336943575   -0.3047184047
H       -1.3026915424    0.8069996864   -0.5503883163
H        0.6404231461   -1.5232274468   -0.5526624607
C        0.3524169885    0.6272448767    0.7650856657
N        1.0484106581    0.9937498643    1.6380174988
