6    
Image 0/11, Energy =  -169.0522692293 (+0.292 kcal/mol)
C       -0.3689809232   -1.4576547332   -1.3858823910
C       -0.1536196575   -0.5941379364   -0.5627748996
H        0.0498937432    0.2058682499    0.1931202386
H       -0.5557149982   -2.2230003307   -2.1042277546
C        0.4068909404    1.6172446315    1.5286738868
N        0.6215308952    2.4516801189    2.3310909145
6    
Image 1/11, Energy =  -169.0527344063 (+0.000 kcal/mol)
C       -0.3523036360   -1.4520656461   -1.3638496428
C       -0.2749735148   -0.5265632434   -0.6065346249
H       -0.1393502733    0.2796642733    0.1107694972
H       -0.3920143690   -2.2694598575   -2.0202361818
C        0.4041544443    1.6133096299    1.5234588566
N        0.7544873485    2.3551148439    2.3563920924
6    
Image 2/11, Energy =  -169.0504957711 (+1.405 kcal/mol)
C       -0.3296236387   -1.4382076547   -1.3360521591
C       -0.3945670492   -0.4606880051   -0.6484538605
H       -0.3294215479    0.3738965010    0.0340040896
H       -0.2272766478   -2.3028531746   -1.9167021273
C        0.4027616263    1.5977868061    1.5038255748
N        0.8781272567    2.2300655270    2.3633784806
6    
Image 3/11, Energy =  -169.0470320868 (+3.578 kcal/mol)
C       -0.3001011147   -1.4102420850   -1.2919694843
C       -0.5063837835   -0.4001460457   -0.6860428004
H       -0.5245932869    0.4689577888   -0.0552886312
H       -0.0631920667   -2.3031074188   -1.7827623596
C        0.4069307716    1.5734910562    1.4666111962
N        0.9873394796    2.0710467041    2.3494520784
6    
Image 4/11, Energy =  -169.0426307064 (+6.340 kcal/mol)
C       -0.2674179892   -1.3684465480   -1.2276896686
C       -0.6033289026   -0.3389051929   -0.7213331052
H       -0.7198358189    0.5599093838   -0.1581270440
H        0.0964529057   -2.2681301794   -1.6168878543
C        0.4142497340    1.5407920643    1.4108400835
N        1.0798800701    1.8747804716    2.3131975881
6    
Image 5/11, Energy =  -169.0371906434 (+9.754 kcal/mol)
C       -0.2340902112   -1.3084257467   -1.1472949031
C       -0.6820271984   -0.2755777752   -0.7461785970
H       -0.9144914962    0.6432177085   -0.2725284658
H        0.2507382290   -2.1944483786   -1.4193042908
C        0.4300915776    1.4848970972    1.3387879046
N        1.1497790983    1.6503370935    2.2465183521
6    
Image 6/11, Energy =  -169.0298004534 (+14.391 kcal/mol)
C       -0.2076576054   -1.2311507699   -1.0630778093
C       -0.7294450557   -0.2065627122   -0.7474023233
H       -1.0951202281    0.7132795680   -0.3871290813
H        0.3902145547   -2.0804065432   -1.1997458708
C        0.4512814094    1.3766259140    1.2458189758
N        1.1907269246    1.4282145416    2.1515361089
6    
Image 7/11, Energy =  -169.0155031264 (+23.363 kcal/mol)
C       -0.2072085742   -1.1578733913   -1.0015542721
C       -0.7181058740   -0.1156840692   -0.6916711927
H       -1.2463900295    0.7613991908   -0.4930138591
H        0.5055463621   -1.9235355930   -0.9765926491
C        0.4681476031    1.1861514379    1.1251954959
N        1.1980105123    1.2495424222    2.0376364767
6    
Image 8/11, Energy =  -168.9959612294 (+35.626 kcal/mol)
C       -0.2482519011   -1.1052610901   -0.9890484293
C       -0.6199056897    0.0115607051   -0.5409571989
H       -1.3478616492    0.7773546092   -0.5837629695
H        0.5881371869   -1.7334369866   -0.7625990467
C        0.4666515090    0.9290865120    0.9797162712
N        1.1612305441    1.1206962470    1.8966513725
6    
Image 9/11, Energy =  -169.0143686238 (+24.075 kcal/mol)
C       -0.2708253380   -1.0812748909   -0.9985337859
C       -0.5163607436    0.0858747274   -0.4003534853
H       -1.3275905547    0.7738102456   -0.5722086850
H        0.6003390247   -1.6821271201   -0.7138566812
C        0.4176516932    0.8064498776    0.8881640309
N        1.0967859183    1.0972671566    1.7967886049
6    
Image 10/11, Energy =  -169.0437609544 (+5.631 kcal/mol)
C       -0.2721093513   -1.0384613434   -0.9953339881
C       -0.4664498990    0.1336943575   -0.3047184047
H       -1.3026915424    0.8069996864   -0.5503883163
H        0.6404231461   -1.5232274468   -0.5526624607
C        0.3524169885    0.6272448767    0.7650856657
N        1.0484106581    0.9937498643    1.6380174988
