6    
Image 0/11, Energy =  -169.0522692293 (+0.375 kcal/mol)
C       -0.3689809232   -1.4576547332   -1.3858823910
C       -0.1536196575   -0.5941379364   -0.5627748996
H        0.0498937432    0.2058682499    0.1931202386
H       -0.5557149982   -2.2230003307   -2.1042277546
C        0.4068909404    1.6172446315    1.5286738868
N        0.6215308952    2.4516801189    2.3310909145
6    
Image 1/11, Energy =  -169.0528662606 (+0.000 kcal/mol)
C       -0.3433995495   -1.4588044096   -1.3583359574
C       -0.2652391451   -0.5241854199   -0.6113469922
H       -0.1468708829    0.2986335084    0.0865851258
H       -0.3945951096   -2.2839503575   -2.0054992907
C        0.3483233903    1.6667715762    1.5097361965
N        0.8017812967    2.3015351020    2.3788609145
6    
Image 2/11, Energy =  -169.0506851024 (+1.369 kcal/mol)
C       -0.3124820168   -1.4420102389   -1.3166739325
C       -0.3766816835   -0.4462385882   -0.6536414622
H       -0.3420981275    0.4156745136   -0.0037170811
H       -0.2259660188   -2.3227007686   -1.8795302852
C        0.3026178514    1.6951335529    1.4861102137
N        0.9546099949    2.1001415281    2.3674525451
6    
Image 3/11, Energy =  -169.0473508666 (+3.461 kcal/mol)
C       -0.2783564894   -1.4064017418   -1.2595455573
C       -0.4848044489   -0.3714076554   -0.6939456577
H       -0.5415446890    0.5224944629   -0.1010354654
H       -0.0540500340   -2.3194926892   -1.7234876334
C        0.2855457639    1.6953360646    1.4665979091
N        1.0732098971    1.8794715574    2.3114164036
6    
Image 4/11, Energy =  -169.0428580783 (+6.280 kcal/mol)
C       -0.2411279405   -1.3522660290   -1.1876953847
C       -0.5890283437   -0.3004263160   -0.7362437284
H       -0.7512538642    0.6175174559   -0.2177448809
H        0.1180038365   -2.2736844649   -1.5348711986
C        0.2974984261    1.6530285889    1.4458019948
N        1.1659078857    1.6558307630    2.2307531977
6    
Image 5/11, Energy =  -169.0372931947 (+9.772 kcal/mol)
C       -0.2067135983   -1.2802204513   -1.1060306745
C       -0.6819618067   -0.2355774122   -0.7727821002
H       -0.9602438102    0.6939482900   -0.3478317655
H        0.2805691505   -2.1820482051   -1.3226938714
C        0.3331194970    1.5499455247    1.4042732431
N        1.2352305677    1.4539522510    2.1450651694
6    
Image 6/11, Energy =  -169.0295717627 (+14.618 kcal/mol)
C       -0.1852443903   -1.1953472742   -1.0231453617
C       -0.7471716839   -0.1700849523   -0.7799146112
H       -1.1476126868    0.7522795741   -0.4699321024
H        0.4253956064   -2.0426548949   -1.0962080239
C        0.3827911658    1.3728348940    1.3060749964
N        1.2718419888    1.2829726499    2.0631251042
6    
Image 7/11, Energy =  -169.0137776962 (+24.528 kcal/mol)
C       -0.2008602675   -1.1305097424   -0.9882601182
C       -0.7300040976   -0.0893233484   -0.7071962343
H       -1.2785430881    0.7872882614   -0.5605989428
H        0.5269698590   -1.8779574044   -0.8892544226
C        0.4239808475    1.1288323947    1.1645687271
N        1.2584567466    1.1816698354    1.9807409926
6    
Image 8/11, Energy =  -168.9961774026 (+35.573 kcal/mol)
C       -0.2504095673   -1.1026249036   -1.0116495101
C       -0.6169730424    0.0073776895   -0.5403115348
H       -1.3248940210    0.7883299439   -0.6013582734
H        0.5686216537   -1.7399162210   -0.7533963977
C        0.4404992923    0.9005035167    1.0207462442
N        1.1831556848    1.1463299706    1.8859694738
6    
Image 9/11, Energy =  -169.0167554039 (+22.660 kcal/mol)
C       -0.2705582933   -1.0735670354   -1.0106239303
C       -0.5088435310    0.0878743144   -0.3873233787
H       -1.3085968948    0.7818393034   -0.5896825363
H        0.5834265607   -1.6879044802   -0.7048343761
C        0.4009580028    0.7806827530    0.9089335525
N        1.1036141557    1.1110751407    1.7835306699
6    
Image 10/11, Energy =  -169.0437609544 (+5.714 kcal/mol)
C       -0.2721093513   -1.0384613434   -0.9953339881
C       -0.4664498990    0.1336943575   -0.3047184047
H       -1.3026915424    0.8069996864   -0.5503883163
H        0.6404231461   -1.5232274468   -0.5526624607
C        0.3524169885    0.6272448767    0.7650856657
N        1.0484106581    0.9937498643    1.6380174988
