6    
Image 0/11, Energy =  -169.0522692293 (+0.315 kcal/mol)
C       -0.3689809232   -1.4576547332   -1.3858823910
C       -0.1536196575   -0.5941379364   -0.5627748996
H        0.0498937432    0.2058682499    0.1931202386
H       -0.5557149982   -2.2230003307   -2.1042277546
C        0.4068909404    1.6172446315    1.5286738868
N        0.6215308952    2.4516801189    2.3310909145
6    
Image 1/11, Energy =  -169.0527705626 (+0.000 kcal/mol)
C       -0.3451037688   -1.4542074443   -1.3590304501
C       -0.2712044133   -0.5238671104   -0.6060624408
H       -0.1457553630    0.2942862515    0.0985033182
H       -0.3904810879   -2.2764868922   -2.0096995877
C        0.3722059645    1.6433138296    1.5072634650
N        0.7803386683    2.3169613657    2.3690256913
6    
Image 2/11, Energy =  -169.0506798025 (+1.312 kcal/mol)
C       -0.3178926729   -1.4404646260   -1.3231417249
C       -0.3860793027   -0.4531949241   -0.6472992416
H       -0.3391445800    0.3983193022    0.0147897667
H       -0.2229090094   -2.3117141606   -1.8959797771
C        0.3472179120    1.6564236037    1.4807274865
N        0.9188076525    2.1506308043    2.3709034876
6    
Image 3/11, Energy =  -169.0474056197 (+3.367 kcal/mol)
C       -0.2864961628   -1.4098862931   -1.2707506422
C       -0.4944548190   -0.3860173336   -0.6873033284
H       -0.5335243417    0.4973339962   -0.0773000885
H       -0.0563245265   -2.3105174266   -1.7527188692
C        0.3405340378    1.6470009052    1.4495052596
N        1.0302658118    1.9620861510    2.3385676671
6    
Image 4/11, Energy =  -169.0429384524 (+6.170 kcal/mol)
C       -0.2532175715   -1.3613742914   -1.2047954035
C       -0.5941179828   -0.3215689021   -0.7230535337
H       -0.7301530906    0.5876920936   -0.1820296205
H        0.1070814643   -2.2696479221   -1.5791832188
C        0.3538560259    1.6020853282    1.4083858272
N        1.1165511543    1.7628136924    2.2806759481
6    
Image 5/11, Energy =  -169.0370398312 (+9.871 kcal/mol)
C       -0.2221311222   -1.2941290510   -1.1266807035
C       -0.6798377675   -0.2565701279   -0.7510126600
H       -0.9292175411    0.6674290411   -0.2990672109
H        0.2656816154   -2.1847732578   -1.3752126571
C        0.3841852100    1.5071550502    1.3485134082
N        1.1813196050    1.5608883433    2.2034598226
6    
Image 6/11, Energy =  -169.0284154264 (+15.283 kcal/mol)
C       -0.2028662640   -1.2134622219   -1.0487859495
C       -0.7320853604   -0.1855123534   -0.7512710178
H       -1.1180279234    0.7323047726   -0.4194579257
H        0.4107390183   -2.0528761764   -1.1481115631
C        0.4206944063    1.3468692386    1.2570322726
N        1.2215461230    1.3726767380    2.1105941827
6    
Image 7/11, Energy =  -169.0121152508 (+25.512 kcal/mol)
C       -0.2137184625   -1.1454096708   -1.0067736213
C       -0.7109295779   -0.0991923470   -0.6807038376
H       -1.2613122791    0.7710419812   -0.5200023251
H        0.5190380206   -1.8896498447   -0.9326694018
C        0.4479696147    1.1273094540    1.1347644670
N        1.2189526841    1.2359004239    2.0053847180
6    
Image 8/11, Energy =  -168.9961902255 (+35.505 kcal/mol)
C       -0.2525357799   -1.1076711215   -1.0115869482
C       -0.6136416899    0.0018362795   -0.5345254788
H       -1.3289452738    0.7764822447   -0.5786443889
H        0.5747735183   -1.7426241381   -0.7769043132
C        0.4531293856    0.9078571856    1.0079970405
N        1.1672198397    1.1641195463    1.8936640876
6    
Image 9/11, Energy =  -169.0195966208 (+20.817 kcal/mol)
C       -0.2713613605   -1.0748196918   -1.0077299273
C       -0.5040825563    0.0886756951   -0.3784735902
H       -1.3134206418    0.7755417174   -0.5690517289
H        0.5951345287   -1.6763929704   -0.7101937648
C        0.4040482729    0.7749589641    0.8900839838
N        1.0896817571    1.1120362816    1.7753650255
6    
Image 10/11, Energy =  -169.0437609544 (+5.654 kcal/mol)
C       -0.2721093513   -1.0384613434   -0.9953339881
C       -0.4664498990    0.1336943575   -0.3047184047
H       -1.3026915424    0.8069996864   -0.5503883163
H        0.6404231461   -1.5232274468   -0.5526624607
C        0.3524169885    0.6272448767    0.7650856657
N        1.0484106581    0.9937498643    1.6380174988
