6    
Image 0/11, Energy =  -169.0522692293 (+0.249 kcal/mol)
C       -0.3689809232   -1.4576547332   -1.3858823910
C       -0.1536196575   -0.5941379364   -0.5627748996
H        0.0498937432    0.2058682499    0.1931202386
H       -0.5557149982   -2.2230003307   -2.1042277546
C        0.4068909404    1.6172446315    1.5286738868
N        0.6215308952    2.4516801189    2.3310909145
6    
Image 1/11, Energy =  -169.0526666442 (+0.000 kcal/mol)
C       -0.3425139965   -1.4529081459   -1.3555584928
C       -0.2704321309   -0.5194167034   -0.6066556153
H       -0.1479718938    0.3014910087    0.0948476788
H       -0.3886047377   -2.2778687845   -2.0021175542
C        0.3627367138    1.6465473927    1.5008121764
N        0.7867860450    2.3021552321    2.3686718031
6    
Image 2/11, Energy =  -169.0504201713 (+1.410 kcal/mol)
C       -0.3128083712   -1.4358631282   -1.3150438331
C       -0.3857595585   -0.4440401306   -0.6484680122
H       -0.3447633823    0.4131893775    0.0066489042
H       -0.2172449390   -2.3126799280   -1.8789876567
C        0.3302364810    1.6617649763    1.4720086788
N        0.9303397697    2.1176288323    2.3638419160
6    
Image 3/11, Energy =  -169.0469810793 (+3.568 kcal/mol)
C       -0.2795881732   -1.4016521907   -1.2600423650
C       -0.4962680143   -0.3726236850   -0.6888565858
H       -0.5440823657    0.5172401521   -0.0903580147
H       -0.0456488325   -2.3087915198   -1.7261820262
C        0.3205304071    1.6508387365    1.4432687259
N        1.0450569783    1.9149885057    2.3221702636
6    
Image 4/11, Energy =  -169.0423185224 (+6.494 kcal/mol)
C       -0.2450370943   -1.3498332007   -1.1901373643
C       -0.5979257883   -0.3054067872   -0.7271870937
H       -0.7469120024    0.6086173726   -0.1989813590
H        0.1224040940   -2.2624155495   -1.5459337474
C        0.3345367488    1.5983674895    1.4070741809
N        1.1329340419    1.7106706736    2.2551653820
6    
Image 5/11, Energy =  -169.0363458786 (+10.241 kcal/mol)
C       -0.2134042730   -1.2814205337   -1.1109290667
C       -0.6827035747   -0.2420966779   -0.7552904120
H       -0.9460346802    0.6837660477   -0.3157977189
H        0.2796960828   -2.1733538334   -1.3448609369
C        0.3657302536    1.4930325043    1.3512563788
N        1.1967161915    1.5200724907    2.1756217544
6    
Image 6/11, Energy =  -169.0279073194 (+15.537 kcal/mol)
C       -0.1955967989   -1.2038981721   -1.0387190417
C       -0.7332940880   -0.1764459563   -0.7543587918
H       -1.1274518243    0.7413827590   -0.4317144228
H        0.4173935942   -2.0450152625   -1.1309243002
C        0.4048829863    1.3285099696    1.2652114284
N        1.2340661307    1.3554666594    2.0905051271
6    
Image 7/11, Energy =  -169.0120423215 (+25.492 kcal/mol)
C       -0.2106499563   -1.1417833702   -1.0053535262
C       -0.7115290306   -0.0961019155   -0.6833024264
H       -1.2638090910    0.7739554931   -0.5260326974
H        0.5188560373   -1.8892717564   -0.9292533244
C        0.4399350592    1.1142253775    1.1449969632
N        1.2271969814    1.2389761683    1.9989450101
6    
Image 8/11, Energy =  -168.9962095752 (+35.427 kcal/mol)
C       -0.2521017274   -1.1071225378   -1.0124967807
C       -0.6147172349    0.0007663608   -0.5348186425
H       -1.3285275706    0.7771612328   -0.5801577220
H        0.5733094678   -1.7452322116   -0.7799511606
C        0.4535624527    0.9029231068    1.0129913839
N        1.1684746123    1.1715040456    1.8944329210
6    
Image 9/11, Energy =  -169.0185482941 (+21.410 kcal/mol)
C       -0.2719625407   -1.0757313618   -1.0098519562
C       -0.5069208751    0.0856173936   -0.3812100654
H       -1.3135117928    0.7752545914   -0.5708757088
H        0.5941013435   -1.6770996172   -0.7120044684
C        0.4053041628    0.7756593125    0.8955899561
N        1.0929897024    1.1162996774    1.7783522409
6    
Image 10/11, Energy =  -169.0437609544 (+5.588 kcal/mol)
C       -0.2721093513   -1.0384613434   -0.9953339881
C       -0.4664498990    0.1336943575   -0.3047184047
H       -1.3026915424    0.8069996864   -0.5503883163
H        0.6404231461   -1.5232274468   -0.5526624607
C        0.3524169885    0.6272448767    0.7650856657
N        1.0484106581    0.9937498643    1.6380174988
