6    
Image 0/11, Energy =  -169.0522692293 (+0.802 kcal/mol)
C       -0.3689809232   -1.4576547332   -1.3858823910
C       -0.1536196575   -0.5941379364   -0.5627748996
H        0.0498937432    0.2058682499    0.1931202386
H       -0.5557149982   -2.2230003307   -2.1042277546
C        0.4068909404    1.6172446315    1.5286738868
N        0.6215308952    2.4516801189    2.3310909145
6    
Image 1/11, Energy =  -169.0535467605 (+0.000 kcal/mol)
C       -0.3537073825   -1.4770469050   -1.3885328509
C       -0.2638333318   -0.5611211076   -0.6196076140
H       -0.1385920086    0.2442631967    0.0931534305
H       -0.4160098004   -2.2865455993   -2.0570197653
C        0.3796900765    1.6855208711    1.5695495497
N        0.7924524489    2.3949295429    2.4024572509
6    
Image 2/11, Energy =  -169.0521151549 (+0.898 kcal/mol)
C       -0.3286247336   -1.4689104639   -1.3616996870
C       -0.3524282006   -0.5082012483   -0.6449930322
H       -0.2993562720    0.3300212262    0.0343776933
H       -0.2816205859   -2.3186424063   -1.9792847766
C        0.3269674387    1.7200975126    1.5507232679
N        0.9350623522    2.2456353785    2.4008765379
6    
Image 3/11, Energy =  -169.0497786215 (+2.365 kcal/mol)
C       -0.2996688049   -1.4439015745   -1.3142239308
C       -0.4352981078   -0.4403368720   -0.6730429340
H       -0.4547775376    0.4309784506   -0.0405096764
H       -0.1461334362   -2.3312822439   -1.8560485874
C        0.2922914095    1.7398084233    1.5200057807
N        1.0435864750    2.0447338163    2.3638193515
6    
Image 4/11, Energy =  -169.0459763230 (+4.751 kcal/mol)
C       -0.2618057117   -1.4004267226   -1.2398577884
C       -0.5313641973   -0.3621909917   -0.7069480057
H       -0.6479678850    0.5438407876   -0.1487221937
H        0.0175599993   -2.3145786984   -1.6754876149
C        0.2805846223    1.7572898140    1.4895896636
N        1.1429931710    1.7760658118    2.2814259428
6    
Image 5/11, Energy =  -169.0409709716 (+7.891 kcal/mol)
C       -0.2225509101   -1.3374551523   -1.1472723794
C       -0.6334623204   -0.2873072477   -0.7481585475
H       -0.8682163015    0.6434671995   -0.2917786495
H        0.1890690732   -2.2543240526   -1.4517495250
C        0.3184840896    1.7384260075    1.4629315246
N        1.2166763682    1.4971932457    2.1760275807
6    
Image 6/11, Energy =  -169.0353047089 (+11.447 kcal/mol)
C       -0.1903882985   -1.2507462241   -1.0450439627
C       -0.7286382365   -0.2139974264   -0.7936621354
H       -1.0904521529    0.7220603572   -0.4615100576
H        0.3469103079   -2.1402719571   -1.1970694575
C        0.3825053418    1.6395032340    1.4274664316
N        1.2800630371    1.2434520146    2.0698191880
6    
Image 7/11, Energy =  -169.0288098620 (+15.523 kcal/mol)
C       -0.1715235705   -1.1525185837   -0.9635030388
C       -0.7971324963   -0.1456406379   -0.8205502339
H       -1.2577124578    0.7736718370   -0.5927271708
H        0.4735719224   -1.9807753604   -0.9639833375
C        0.4171421499    1.3991818732    1.3370062065
N        1.3356544507    1.1060808688    2.0037575823
6    
Image 8/11, Energy =  -169.0144112447 (+24.558 kcal/mol)
C       -0.1927503802   -1.1073561552   -0.9574689076
C       -0.7555671997   -0.0713255455   -0.7363771312
H       -1.3107369735    0.8079056605   -0.6176948700
H        0.5372056469   -1.8483294054   -0.8210206039
C        0.4224497574    1.1178036457    1.1796039864
N        1.2993991474    1.1013017962    1.9529575347
6    
Image 9/11, Energy =  -168.9961455939 (+36.020 kcal/mol)
C       -0.2547598801   -1.0994481701   -1.0072552569
C       -0.6139849106    0.0168683785   -0.5448780812
H       -1.3099846505    0.8071599766   -0.6186432735
H        0.5508207006   -1.7481817102   -0.7360213218
C        0.4338251199    0.8980932796    1.0259571154
N        1.1940836191    1.1255082420    1.8808408268
6    
Image 10/11, Energy =  -169.0437609544 (+6.141 kcal/mol)
C       -0.2721093513   -1.0384613434   -0.9953339881
C       -0.4664498990    0.1336943575   -0.3047184047
H       -1.3026915424    0.8069996864   -0.5503883163
H        0.6404231461   -1.5232274468   -0.5526624607
C        0.3524169885    0.6272448767    0.7650856657
N        1.0484106581    0.9937498643    1.6380174988
