6    
Image 0/11, Energy =  -169.0522692293 (+0.000 kcal/mol)
C       -0.3689809232   -1.4576547332   -1.3858823910
C       -0.1536196575   -0.5941379364   -0.5627748996
H        0.0498937432    0.2058682499    0.1931202386
H       -0.5557149982   -2.2230003307   -2.1042277546
C        0.4068909404    1.6172446315    1.5286738868
N        0.6215308952    2.4516801189    2.3310909145
6    
Image 1/11, Energy =  -169.0439698705 (+5.208 kcal/mol)
C       -0.3553896537   -1.4223881846   -1.3652945538
C       -0.3285737380   -0.5548960078   -0.5421359050
H       -0.0586791074    0.3465528978    0.0929117938
H       -0.3952059245   -2.2905214676   -2.0473091529
C        0.4319244866    1.5502618499    1.5375487706
N        0.7059239369    2.3709909172    2.3242790471
6    
Image 2/11, Energy =  -169.0408504676 (+7.165 kcal/mol)
C       -0.3197987827   -1.4065811325   -1.3540418901
C       -0.4383855329   -0.5056080437   -0.5673020852
H       -0.2871409880    0.4412988957    0.0020260105
H       -0.2417937506   -2.3109938332   -1.9541971128
C        0.4960358214    1.4541169993    1.5724284926
N        0.7910832330    2.3277671094    2.3010865851
6    
Image 3/11, Energy =  -169.0419254692 (+6.491 kcal/mol)
C       -0.2997304524   -1.3775355540   -1.3189114867
C       -0.4937701016   -0.4289857042   -0.6190936391
H       -0.5357202152    0.4490049021   -0.0105628174
H       -0.0934745074   -2.2910895093   -1.8520814009
C        0.5682108971    1.3959499971    1.5253965430
N        0.8544843795    2.2526558682    2.2752528012
6    
Image 4/11, Energy =  -169.0301156292 (+13.902 kcal/mol)
C       -0.3010743854   -1.3258963423   -1.2505278615
C       -0.5020453507   -0.3474998837   -0.6258867552
H       -0.7570452393    0.5815625605   -0.1495026645
H        0.0744554925   -2.2807859682   -1.6536981169
C        0.5047943739    1.3840977484    1.4017761485
N        0.9809151089    1.9885218853    2.2778392496
6    
Image 5/11, Energy =  -169.0203738972 (+20.015 kcal/mol)
C       -0.2803451009   -1.2953386865   -1.1833821566
C       -0.5560543343   -0.2501549307   -0.6399644197
H       -1.0113943422    0.6880121611   -0.2881540122
H        0.2630226363   -2.2305558835   -1.4433360075
C        0.4893764135    1.3524466405    1.3145394475
N        1.0953947226    1.7355906991    2.2402971486
6    
Image 6/11, Energy =  -169.0083155200 (+27.581 kcal/mol)
C       -0.2634354399   -1.2632542181   -1.0947763169
C       -0.5986572484   -0.1542643657   -0.6554874237
H       -1.2170678518    0.7414006122   -0.3808493695
H        0.4241154423   -2.1358980003   -1.2564039941
C        0.4938533775    1.3018852502    1.2211979144
N        1.1611917202    1.5101307219    2.1663191896
6    
Image 7/11, Energy =  -168.9983923597 (+33.808 kcal/mol)
C       -0.2504678605   -1.2097657416   -1.0015270525
C       -0.6261567220   -0.0853924763   -0.5867307692
H       -1.3051506811    0.7959527250   -0.4985718955
H        0.5375521550   -2.0000512696   -1.0749562814
C        0.4749760323    1.2246358900    1.1070497674
N        1.1692470763    1.2746208723    2.0547362263
6    
Image 8/11, Energy =  -168.9858158084 (+41.700 kcal/mol)
C       -0.2534541164   -1.1561015678   -0.8897708329
C       -0.6199643647    0.0177955343   -0.4923351611
H       -1.3486495075    0.8395969724   -0.6046698451
H        0.6410629158   -1.8121707972   -0.8666425410
C        0.4381404673    1.0983106906    0.9578713609
N        1.1428646055    1.0125691627    1.8955470241
6    
Image 9/11, Energy =  -169.0123504293 (+25.049 kcal/mol)
C       -0.2723047082   -1.1120059571   -0.8809286257
C       -0.5430258443    0.1295432591   -0.3852017523
H       -1.3122701475    0.8607262342   -0.6533860386
H        0.6725144021   -1.6353111775   -0.6561626750
C        0.3568309302    0.8490990485    0.8323244957
N        1.0982553676    0.9079485922    1.7433545961
6    
Image 10/11, Energy =  -169.0437609544 (+5.339 kcal/mol)
C       -0.2721093513   -1.0384613434   -0.9953339881
C       -0.4664498990    0.1336943575   -0.3047184047
H       -1.3026915424    0.8069996864   -0.5503883163
H        0.6404231461   -1.5232274468   -0.5526624607
C        0.3524169885    0.6272448767    0.7650856657
N        1.0484106581    0.9937498643    1.6380174988
