6    
Image 0/11, Energy =  -169.0522692293 (+0.000 kcal/mol)
C       -0.3689809232   -1.4576547332   -1.3858823910
C       -0.1536196575   -0.5941379364   -0.5627748996
H        0.0498937432    0.2058682499    0.1931202386
H       -0.5557149982   -2.2230003307   -2.1042277546
C        0.4068909404    1.6172446315    1.5286738868
N        0.6215308952    2.4516801189    2.3310909145
6    
Image 1/11, Energy =  -168.9768892517 (+47.302 kcal/mol)
C       -0.3556517166   -1.3978507162   -1.3381355498
C       -0.3189709722   -0.5860815341   -0.5788038450
H       -0.0604727991    0.3391366889    0.0998421186
H       -0.4011371256   -2.2846564658   -2.0466672194
C        0.4466990222    1.5954465068    1.5782447846
N        0.6895335914    2.3340055249    2.2855197107
6    
Image 2/11, Energy =  -169.0048121673 (+29.780 kcal/mol)
C       -0.3237456807   -1.3959953531   -1.3394955967
C       -0.4322669071   -0.5149792890   -0.5871257615
H       -0.2911145561    0.4328356793    0.0055700038
H       -0.2412409767   -2.3059631264   -1.9514004139
C        0.5108334300    1.4983793044    1.6045708163
N        0.7775346906    2.2857227802    2.2678809521
6    
Image 3/11, Energy =  -169.0077833784 (+27.915 kcal/mol)
C       -0.3011705645   -1.3761977677   -1.3143076895
C       -0.4913264475   -0.4398989745   -0.6290393664
H       -0.5327757398    0.4544534782   -0.0107481837
H       -0.0951084638   -2.2863694840   -1.8479518392
C        0.5764382287    1.4395896801    1.5591889847
N        0.8439429868    2.2084230677    2.2428580942
6    
Image 4/11, Energy =  -168.9611141381 (+57.201 kcal/mol)
C       -0.3029893281   -1.3018097277   -1.2316186346
C       -0.4980916516   -0.3921798782   -0.6577014574
H       -0.7594761138    0.5926413695   -0.1412246559
H        0.0723104258   -2.2759448433   -1.6534740111
C        0.5278190256    1.4121542535    1.4437041027
N        0.9604276417    1.9651388264    2.2403146563
6    
Image 5/11, Energy =  -168.9646205584 (+55.000 kcal/mol)
C       -0.2868365776   -1.2606783931   -1.1619632389
C       -0.5505491912   -0.2897243522   -0.6649901357
H       -1.0103266785    0.6862976077   -0.2872085705
H        0.2612414134   -2.2254112228   -1.4421373370
C        0.5182584575    1.3716557170    1.3578467325
N        1.0682125717    1.7178606433    2.1984525497
6    
Image 6/11, Energy =  -168.9642643295 (+55.224 kcal/mol)
C       -0.2732842693   -1.2224152888   -1.0794798648
C       -0.5921680296   -0.1967527666   -0.6712287733
H       -1.2084826687    0.7354079153   -0.3831850339
H        0.4190942825   -2.1313572116   -1.2563525232
C        0.5254861701    1.3135017599    1.2670983358
N        1.1293545147    1.5016155917    2.1231478591
6    
Image 7/11, Energy =  -168.9623357221 (+56.434 kcal/mol)
C       -0.2611085798   -1.1735894044   -0.9885083829
C       -0.6182629920   -0.1197160221   -0.6017857827
H       -1.3003743448    0.7895562088   -0.4994546488
H        0.5344463987   -1.9944185477   -1.0719128727
C        0.5085840583    1.2273422735    1.1516980663
N        1.1367154595    1.2708254916    2.0099636162
6    
Image 8/11, Energy =  -168.9565690002 (+60.053 kcal/mol)
C       -0.2622320609   -1.1298934219   -0.8879670680
C       -0.6107926166   -0.0035822174   -0.4995453177
H       -1.3439264778    0.8327958867   -0.6036135044
H        0.6366654660   -1.8077394886   -0.8616055343
C        0.4711087388    1.0866878686    1.0018648138
N        1.1091769505    1.0217313678    1.8508666152
6    
Image 9/11, Energy =  -168.9819533430 (+44.124 kcal/mol)
C       -0.2746030496   -1.1059689211   -0.8925492980
C       -0.5357103384    0.1307600692   -0.3775457422
H       -1.3140790936    0.8500380466   -0.6456154497
H        0.6676450491   -1.6380891223   -0.6594607733
C        0.3977120819    0.8439232541    0.8743076849
N        1.0590353506    0.9193366727    1.7008635787
6    
Image 10/11, Energy =  -169.0437609544 (+5.339 kcal/mol)
C       -0.2721093513   -1.0384613434   -0.9953339881
C       -0.4664498990    0.1336943575   -0.3047184047
H       -1.3026915424    0.8069996864   -0.5503883163
H        0.6404231461   -1.5232274468   -0.5526624607
C        0.3524169885    0.6272448767    0.7650856657
N        1.0484106581    0.9937498643    1.6380174988
