6    
Image 0/11, Energy =  -169.0522692293 (+0.249 kcal/mol)
C       -0.3689809232   -1.4576547332   -1.3858823910
C       -0.1536196575   -0.5941379364   -0.5627748996
H        0.0498937432    0.2058682499    0.1931202386
H       -0.5557149982   -2.2230003307   -2.1042277546
C        0.4068909404    1.6172446315    1.5286738868
N        0.6215308952    2.4516801189    2.3310909145
6    
Image 1/11, Energy =  -169.0526666442 (+0.000 kcal/mol)
C       -0.3425139965   -1.4529081459   -1.3555584928
C       -0.2704321309   -0.5194167034   -0.6066556153
H       -0.1479718938    0.3014910087    0.0948476788
H       -0.3886047377   -2.2778687845   -2.0021175542
C        0.3627367138    1.6465473927    1.5008121764
N        0.7867860450    2.3021552321    2.3686718031
6    
Image 2/11, Energy =  -169.0504679057 (+1.380 kcal/mol)
C       -0.3132378971   -1.4366325548   -1.3158205662
C       -0.3855787944   -0.4457261151   -0.6480042286
H       -0.3434313549    0.4111499719    0.0075209810
H       -0.2184909616   -2.3124582464   -1.8816069438
C        0.3316080635    1.6621896077    1.4727071992
N        0.9291309442    2.1214773361    2.3652035554
6    
Image 3/11, Energy =  -169.0470600722 (+3.518 kcal/mol)
C       -0.2802912655   -1.4030798447   -1.2611700733
C       -0.4955656803   -0.3746535340   -0.6883484525
H       -0.5419039958    0.5145191093   -0.0886750668
H       -0.0477018096   -2.3091100148   -1.7301767341
C        0.3222429231    1.6520876318    1.4440633347
N        1.0432198279    1.9202366512    2.3243069899
6    
Image 4/11, Energy =  -169.0424166321 (+6.432 kcal/mol)
C       -0.2458562774   -1.3514931637   -1.1916593722
C       -0.5971315509   -0.3073733885   -0.7266884744
H       -0.7445515024    0.6059337079   -0.1967373489
H        0.1200904791   -2.2635118974   -1.5503459680
C        0.3365123466    1.6003096297    1.4071633590
N        1.1309365048    1.7161351102    2.2582678029
6    
Image 5/11, Energy =  -169.0364283470 (+10.190 kcal/mol)
C       -0.2139720960   -1.2826087345   -1.1122646477
C       -0.6822183695   -0.2434551497   -0.7548811002
H       -0.9442349636    0.6820742202   -0.3138752518
H        0.2778626304   -2.1747332434   -1.3479716658
C        0.3677594691    1.4953927910    1.3507118506
N        1.1948033294    1.5233301141    2.1782808137
6    
Image 6/11, Energy =  -169.0279427216 (+15.514 kcal/mol)
C       -0.1955840396   -1.2044690657   -1.0389879135
C       -0.7330795341   -0.1772438139   -0.7535892550
H       -1.1263056632    0.7406974885   -0.4301257473
H        0.4164258786   -2.0460561598   -1.1331582733
C        0.4059555563    1.3298783062    1.2637006120
N        1.2325878019    1.3571932418    2.0921605760
6    
Image 7/11, Energy =  -169.0120476458 (+25.489 kcal/mol)
C       -0.2104877722   -1.1419809023   -1.0051700750
C       -0.7114086865   -0.0965500014   -0.6825417903
H       -1.2631381315    0.7738197898   -0.5252994213
H        0.5183772621   -1.8901924896   -0.9310420812
C        0.4406650519    1.1145748719    1.1448079372
N        1.2259922761    1.2403287284    1.9992454295
6    
Image 8/11, Energy =  -168.9962095752 (+35.427 kcal/mol)
C       -0.2521017274   -1.1071225378   -1.0124967807
C       -0.6147172349    0.0007663608   -0.5348186425
H       -1.3285275706    0.7771612328   -0.5801577220
H        0.5733094678   -1.7452322116   -0.7799511606
C        0.4535624527    0.9029231068    1.0129913839
N        1.1684746123    1.1715040456    1.8944329210
6    
Image 9/11, Energy =  -169.0185482941 (+21.410 kcal/mol)
C       -0.2719625407   -1.0757313618   -1.0098519562
C       -0.5069208751    0.0856173936   -0.3812100654
H       -1.3135117928    0.7752545914   -0.5708757088
H        0.5941013435   -1.6770996172   -0.7120044684
C        0.4053041628    0.7756593125    0.8955899561
N        1.0929897024    1.1162996774    1.7783522409
6    
Image 10/11, Energy =  -169.0437609544 (+5.588 kcal/mol)
C       -0.2721093513   -1.0384613434   -0.9953339881
C       -0.4664498990    0.1336943575   -0.3047184047
H       -1.3026915424    0.8069996864   -0.5503883163
H        0.6404231461   -1.5232274468   -0.5526624607
C        0.3524169885    0.6272448767    0.7650856657
N        1.0484106581    0.9937498643    1.6380174988
