6    
Image 0/11, Energy =  -169.0522692293 (+0.000 kcal/mol)
C       -0.3689809232   -1.4576547332   -1.3858823910
C       -0.1536196575   -0.5941379364   -0.5627748996
H        0.0498937432    0.2058682499    0.1931202386
H       -0.5557149982   -2.2230003307   -2.1042277546
C        0.4068909404    1.6172446315    1.5286738868
N        0.6215308952    2.4516801189    2.3310909145
6    
Image 1/11, Energy =  -169.0455110491 (+4.241 kcal/mol)
C       -0.3590592495   -1.4496956859   -1.3794755112
C       -0.3124977176   -0.5340904039   -0.5446179984
H       -0.0745347570    0.3274769934    0.0932206451
H       -0.3952813975   -2.2697503007   -2.0325088465
C        0.4368262972    1.5579814501    1.5433766726
N        0.7045468244    2.3680779511    2.3200050379
6    
Image 2/11, Energy =  -169.0424398147 (+6.168 kcal/mol)
C       -0.3240622411   -1.4247571625   -1.3564492815
C       -0.4265550732   -0.4882611679   -0.5761761110
H       -0.2893112093    0.4183510664    0.0086256111
H       -0.2451646684   -2.2946208036   -1.9473468874
C        0.4983558335    1.4724330160    1.5766436591
N        0.7867373586    2.3168550474    2.2947030097
6    
Image 3/11, Energy =  -169.0411684160 (+6.966 kcal/mol)
C       -0.2982761936   -1.3939412177   -1.3221046522
C       -0.4937765397   -0.4227963972   -0.6225438082
H       -0.5339907872    0.4528587168   -0.0150048679
H       -0.0937797216   -2.2801604873   -1.8410450152
C        0.5619567216    1.4108111371    1.5292667416
N        0.8578665206    2.2332282479    2.2714316019
6    
Image 4/11, Energy =  -169.0264997172 (+16.171 kcal/mol)
C       -0.2807206565   -1.3722565066   -1.2668888984
C       -0.5237509132   -0.3187869552   -0.6229445277
H       -0.7522818054    0.5720383137   -0.1490790447
H        0.0666223039   -2.2593978242   -1.6469931859
C        0.5073606950    1.3891653421    1.4078975727
N        0.9827703759    1.9892376303    2.2780080841
6    
Image 5/11, Energy =  -169.0252222640 (+16.972 kcal/mol)
C       -0.2626049330   -1.3066023555   -1.1762835103
C       -0.5771351359   -0.2453988840   -0.6523099916
H       -0.9968515184    0.6668341200   -0.2907940180
H        0.2491025236   -2.2071134528   -1.4390627383
C        0.4951540454    1.3592441244    1.3235036945
N        1.0923350138    1.7330364479    2.2349465636
6    
Image 6/11, Energy =  -169.0160202112 (+22.747 kcal/mol)
C       -0.2497984192   -1.2460594542   -1.0820638459
C       -0.6183687948   -0.1734767674   -0.6661396781
H       -1.1907604772    0.7182987198   -0.3897534036
H        0.4038117044   -2.1125947937   -1.2522762542
C        0.5020902837    1.3079472714    1.2345244724
N        1.1530257026    1.5058850242    2.1557087090
6    
Image 7/11, Energy =  -169.0050875082 (+29.607 kcal/mol)
C       -0.2418817013   -1.1846683867   -0.9856933059
C       -0.6391158937   -0.1053316992   -0.6058875710
H       -1.2852485341    0.7735351179   -0.5008977896
H        0.5198785497   -1.9779518118   -1.0675120485
C        0.4857083788    1.2260078840    1.1192472712
N        1.1606592006    1.2684088953    2.0407434397
6    
Image 8/11, Energy =  -168.9892529766 (+39.543 kcal/mol)
C       -0.2528547307   -1.1272151301   -0.8895821377
C       -0.6187741725   -0.0025870543   -0.5064315174
H       -1.3329494223    0.8205879764   -0.5999805559
H        0.6232364408   -1.8000443019   -0.8589415288
C        0.4492967701    1.0866375273    0.9728882818
N        1.1320451146    1.0226209780    1.8820474621
6    
Image 9/11, Energy =  -169.0143713212 (+23.781 kcal/mol)
C       -0.2767796646   -1.0962201475   -0.8952199324
C       -0.5294402245    0.1236344637   -0.3761665355
H       -1.3138839492    0.8428925905   -0.6408245487
H        0.6626815575   -1.6450864065   -0.6672114575
C        0.3748290255    0.8429021310    0.8436206498
N        1.0825932552    0.9318773677    1.7358018248
6    
Image 10/11, Energy =  -169.0437609544 (+5.339 kcal/mol)
C       -0.2721093513   -1.0384613434   -0.9953339881
C       -0.4664498990    0.1336943575   -0.3047184047
H       -1.3026915424    0.8069996864   -0.5503883163
H        0.6404231461   -1.5232274468   -0.5526624607
C        0.3524169885    0.6272448767    0.7650856657
N        1.0484106581    0.9937498643    1.6380174988
