6    
Image 0/11, Energy =  -169.0541225047 (+0.000 kcal/mol)
C       -0.3739981687   -1.4835649798   -1.4070811137
C       -0.1593894936   -0.6267231344   -0.5957044914
H        0.0347237090    0.1461263812    0.1365769974
H       -0.5620255952   -2.2351986645   -2.1185513169
C        0.4238299506    1.6832116562    1.5959377344
N        0.6368595980    2.5161487414    2.3888221955
6    
Image 1/11, Energy =  -169.0532622336 (+0.540 kcal/mol)
C       -0.3475945783   -1.4742084797   -1.3726113026
C       -0.2672219276   -0.5378509469   -0.6295980221
H       -0.1432292716    0.2792087797    0.0662216642
H       -0.3993579817   -2.3010051181   -2.0149595732
C        0.3852909916    1.6780760011    1.5408476890
N        0.7721127671    2.3557797645    2.4100995484
6    
Image 2/11, Energy =  -169.0510342013 (+1.938 kcal/mol)
C       -0.3177682614   -1.4549345842   -1.3287343312
C       -0.3740554182   -0.4579135622   -0.6679408217
H       -0.3247631042    0.3993904829   -0.0162592338
H       -0.2343173312   -2.3372682741   -1.8872543866
C        0.3569967750    1.6757403686    1.4951054241
N        0.8939073393    2.1749855700    2.4050833512
6    
Image 3/11, Energy =  -169.0476489346 (+4.062 kcal/mol)
C       -0.2840699197   -1.4223013581   -1.2717224871
C       -0.4775112189   -0.3849479830   -0.7067210412
H       -0.5109771484    0.5074163498   -0.1111100746
H       -0.0688844107   -2.3372332876   -1.7333908833
C        0.3459000890    1.6589164360    1.4523913256
N        0.9955426081    1.9781498443    2.3705531612
6    
Image 4/11, Energy =  -169.0431268730 (+6.900 kcal/mol)
C       -0.2491322823   -1.3733886909   -1.2021896550
C       -0.5739563047   -0.3180152988   -0.7427631012
H       -0.7020580688    0.6021476290   -0.2186581094
H        0.0944263912   -2.2973194184   -1.5538992475
C        0.3545033525    1.6108960130    1.4058159083
N        1.0762169118    1.7756797673    2.3116942044
6    
Image 5/11, Energy =  -169.0371972689 (+10.621 kcal/mol)
C       -0.2173064065   -1.3064181259   -1.1222270457
C       -0.6578592918   -0.2531487573   -0.7710237957
H       -0.8978381275    0.6822393441   -0.3376519807
H        0.2537619756   -2.2121931367   -1.3478374240
C        0.3809924922    1.5141991570    1.3441002073
N        1.1382493585    1.5753215199    2.2346400378
6    
Image 6/11, Energy =  -169.0285302726 (+16.059 kcal/mol)
C       -0.1972344706   -1.2256868277   -1.0445690205
C       -0.7113122062   -0.1833878666   -0.7710233998
H       -1.0871040332    0.7454561356   -0.4592523526
H        0.4013170730   -2.0782178484   -1.1193591144
C        0.4159304356    1.3534422990    1.2534414846
N        1.1784032026    1.3883941090    2.1407624013
6    
Image 7/11, Energy =  -169.0121997341 (+26.307 kcal/mol)
C       -0.2067375438   -1.1566220078   -1.0030409894
C       -0.6928544188   -0.0987423649   -0.6993006980
H       -1.2323188325    0.7818267956   -0.5598437629
H        0.5123607968   -1.9109753692   -0.9028798606
C        0.4418627762    1.1324435642    1.1329691022
N        1.1776872243    1.2520693829    2.0320962071
6    
Image 8/11, Energy =  -168.9962014973 (+36.346 kcal/mol)
C       -0.2432884155   -1.1181714107   -1.0084686235
C       -0.5983053719    0.0009778826   -0.5501917017
H       -1.3000853796    0.7859991275   -0.6162645946
H        0.5694585914   -1.7617899713   -0.7485534199
C        0.4442648082    0.9123455222    1.0089449589
N        1.1279557700    1.1806388505    1.9145333791
6    
Image 9/11, Energy =  -169.0190640318 (+22.000 kcal/mol)
C       -0.2616761877   -1.0834654911   -1.0043431101
C       -0.4876371744    0.0891702572   -0.3927085998
H       -1.2789341639    0.7878858142   -0.6088333414
H        0.5826036327   -1.7059725064   -0.6876412766
C        0.3960902188    0.7803739118    0.8949047921
N        1.0495536775    1.1320080149    1.7986215345
6    
Image 10/11, Energy =  -169.0450280987 (+5.707 kcal/mol)
C       -0.2621558455   -1.0375648643   -0.9849831972
C       -0.4394724183    0.1448813965   -0.3146451553
H       -1.2369288594    0.8199852189   -0.5927880212
H        0.6030705059   -1.5856678970   -0.5514840624
C        0.3482331706    0.6332965578    0.7796522209
N        0.9872534521    1.0250695880    1.6642482151
