6    
Image 0/11, Energy =  -169.0541225045 (+0.000 kcal/mol)
C       -0.3739981793   -1.4835649428   -1.4070811878
C       -0.1593894830   -0.6267231609   -0.5957044385
H        0.0347237196    0.1461263335    0.1365770662
H       -0.5620256323   -2.2351985692   -2.1185514810
C        0.4238299770    1.6832115821    1.5959378403
N        0.6368596033    2.5161487572    2.3888222008
6    
Image 1/11, Energy =  -169.0535365376 (+0.368 kcal/mol)
C       -0.3516803236   -1.4839632576   -1.3869940077
C       -0.2539689065   -0.5547809182   -0.6352362752
H       -0.1257519768    0.2601070521    0.0638629206
H       -0.4242973616   -2.3068989105   -2.0369141367
C        0.3776982860    1.7024803429    1.5662381370
N        0.7780002797    2.3830556899    2.4290433642
6    
Image 2/11, Energy =  -169.0520853855 (+1.278 kcal/mol)
C       -0.3271171880   -1.4751924620   -1.3570588039
C       -0.3386461025   -0.4930369036   -0.6692905644
H       -0.2748748627    0.3577651242   -0.0071100039
H       -0.2925036100   -2.3476758911   -1.9426853616
C        0.3388704525    1.7238891106    1.5410298550
N        0.8942713082    2.2342510209    2.4351148826
6    
Image 3/11, Energy =  -169.0497452126 (+2.747 kcal/mol)
C       -0.2949667077   -1.4525257930   -1.3069707386
C       -0.4171941579   -0.4296991347   -0.6939921532
H       -0.4288912388    0.4553741164   -0.0812008654
H       -0.1552425119   -2.3589743585   -1.8200738551
C        0.2932857080    1.7544972889    1.5068823672
N        1.0030089065    2.0313278816    2.3953552472
6    
Image 4/11, Energy =  -169.0459228419 (+5.145 kcal/mol)
C       -0.2543695604   -1.4093389983   -1.2307531780
C       -0.5136549958   -0.3553385210   -0.7244664083
H       -0.6263147464    0.5629651492   -0.1859041814
H        0.0158212264   -2.3385247183   -1.6398503128
C        0.2758527300    1.7713834027    1.4759443643
N        1.1026653443    1.7688536853    2.3050297170
6    
Image 5/11, Energy =  -169.0408999521 (+8.297 kcal/mol)
C       -0.2119176273   -1.3469580662   -1.1385025121
C       -0.6208775334   -0.2871362474   -0.7635498498
H       -0.8565249879    0.6520746272   -0.3254992242
H        0.1975140747   -2.2721594475   -1.4201765505
C        0.3110926559    1.7498625168    1.4507377595
N        1.1807134154    1.5043166154    2.1969903773
6    
Image 6/11, Energy =  -169.0352295085 (+11.856 kcal/mol)
C       -0.1747220390   -1.2584674014   -1.0352806704
C       -0.7217071739   -0.2225823134   -0.7999736043
H       -1.0916324631    0.7147493156   -0.4814781379
H        0.3682604625   -2.1467023989   -1.1728415969
C        0.3660315920    1.6541875382    1.4167334501
N        1.2537696150    1.2588152540    2.0728405586
6    
Image 7/11, Energy =  -169.0287099166 (+15.947 kcal/mol)
C       -0.1536831351   -1.1589325276   -0.9546836254
C       -0.7940183815   -0.1600113365   -0.8218027299
H       -1.2689125359    0.7541021831   -0.6034220006
H        0.5029537063   -1.9778585051   -0.9463942045
C        0.3953476039    1.4098143049    1.3290681936
N        1.3183127330    1.1328858721    1.9972343653
6    
Image 8/11, Energy =  -169.0141176045 (+25.103 kcal/mol)
C       -0.1757938281   -1.1148281460   -0.9506247762
C       -0.7540122728   -0.0855862571   -0.7364944935
H       -1.3232470469    0.7857765805   -0.6254321738
H        0.5666302309   -1.8416862188   -0.8040751016
C        0.4052834874    1.1266195594    1.1709545497
N        1.2811394194    1.1297044724    1.9456719934
6    
Image 9/11, Energy =  -168.9961396621 (+36.385 kcal/mol)
C       -0.2375357252   -1.1090471576   -1.0009555139
C       -0.6143550379    0.0043983546   -0.5457548031
H       -1.3225595191    0.7830520698   -0.6249212414
H        0.5786639921   -1.7412017747   -0.7225860365
C        0.4186588590    0.9097217500    1.0210891235
N        1.1771274210    1.1530767481    1.8731284695
6    
Image 10/11, Energy =  -169.0450280986 (+5.707 kcal/mol)
C       -0.2621558402   -1.0375648166   -0.9849832183
C       -0.4394815308    0.1448746231   -0.3146355878
H       -1.2369564931    0.8199646233   -0.5927588847
H        0.6030896833   -1.5856535457   -0.5515042875
C        0.3482367849    0.6332992196    0.7796484267
N        0.9872674012    1.0250798964    1.6642335463
