6    
Image 0/11, Energy =  -169.0541225047 (+0.000 kcal/mol)
C       -0.3739981687   -1.4835649798   -1.4070811137
C       -0.1593894936   -0.6267231344   -0.5957044914
H        0.0347237090    0.1461263812    0.1365769974
H       -0.5620255952   -2.2351986645   -2.1185513169
C        0.4238299506    1.6832116562    1.5959377344
N        0.6368595980    2.5161487414    2.3888221955
6    
Image 1/11, Energy =  -169.0531667088 (+0.600 kcal/mol)
C       -0.3439131398   -1.4721383275   -1.3680255069
C       -0.2680413490   -0.5335184578   -0.6281405256
H       -0.1484561944    0.2869078996    0.0648336740
H       -0.3940629433   -2.3011053362   -2.0073123149
C        0.3724611960    1.6809758522    1.5324700075
N        0.7820124304    2.3388783701    2.4061746697
6    
Image 2/11, Energy =  -169.0507728784 (+2.102 kcal/mol)
C       -0.3114382792   -1.4501812786   -1.3197314860
C       -0.3766237824   -0.4493613677   -0.6657240409
H       -0.3349411049    0.4127206384   -0.0196704863
H       -0.2234378774   -2.3354656379   -1.8719558050
C        0.3365196209    1.6813313893    1.4848381849
N        0.9099214230    2.1409562572    2.3922436357
6    
Image 3/11, Energy =  -169.0472002206 (+4.344 kcal/mol)
C       -0.2763527292   -1.4136760600   -1.2594232402
C       -0.4830548274   -0.3728443104   -0.7062587597
H       -0.5274841909    0.5237652643   -0.1183453365
H       -0.0519713988   -2.3315441626   -1.7095619995
C        0.3234083643    1.6620089751    1.4453907749
N        1.0154547822    1.9322902944    2.3481985621
6    
Image 4/11, Energy =  -169.0424490942 (+7.325 kcal/mol)
C       -0.2402535394   -1.3608241134   -1.1869963396
C       -0.5821682350   -0.3036542788   -0.7452507150
H       -0.7256217150    0.6189279088   -0.2309694186
H        0.1160384190   -2.2855273619   -1.5222931382
C        0.3337496802    1.6056246643    1.4039690461
N        1.0982553909    1.7254531819    2.2815405654
6    
Image 5/11, Energy =  -169.0364330778 (+11.100 kcal/mol)
C       -0.2075716845   -1.2922121838   -1.1066583955
C       -0.6650446468   -0.2399136726   -0.7743037228
H       -0.9213078696    0.6955246712   -0.3515388829
H        0.2732945372   -2.1965744422   -1.3169725452
C        0.3613187112    1.4987200880    1.3468247127
N        1.1593109538    1.5344555403    2.2026488331
6    
Image 6/11, Energy =  -169.0279625754 (+16.416 kcal/mol)
C       -0.1889675795   -1.2149419436   -1.0341443168
C       -0.7143460995   -0.1750169471   -0.7732523236
H       -1.1003224060    0.7523064545   -0.4688544049
H        0.4112937967   -2.0673454623   -1.1019758934
C        0.3975069512    1.3339770368    1.2611553665
N        1.1948353388    1.3710208626    2.1170715710
6    
Image 7/11, Energy =  -169.0121182160 (+26.358 kcal/mol)
C       -0.2022293108   -1.1527380169   -1.0004088080
C       -0.6936561369   -0.0961824036   -0.7006512385
H       -1.2345713800    0.7842255970   -0.5630956181
H        0.5129615359   -1.9110986720   -0.9017226370
C        0.4316352561    1.1204833293    1.1422338942
N        1.1858600378    1.2553101670    2.0236444059
6    
Image 8/11, Energy =  -168.9962144128 (+36.338 kcal/mol)
C       -0.2428493331   -1.1177146619   -1.0088370354
C       -0.5989899752    0.0006117886   -0.5503326630
H       -1.3001075805    0.7868080910   -0.6172396416
H        0.5690044414   -1.7633688815   -0.7499186207
C        0.4440856191    0.9091544879    1.0117607768
N        1.1288568307    1.1845091767    1.9145671822
6    
Image 9/11, Energy =  -169.0180301512 (+22.648 kcal/mol)
C       -0.2621619611   -1.0847069640   -1.0066651385
C       -0.4908037803    0.0858739830   -0.3955623916
H       -1.2785604436    0.7876070923   -0.6100187924
H        0.5820686725   -1.7057900675   -0.6886779642
C        0.3963070517    0.7821837595    0.8999781222
N        1.0531504641    1.1348321972    1.8009461632
6    
Image 10/11, Energy =  -169.0450280987 (+5.707 kcal/mol)
C       -0.2621558455   -1.0375648643   -0.9849831972
C       -0.4394724183    0.1448813965   -0.3146451553
H       -1.2369288594    0.8199852189   -0.5927880212
H        0.6030705059   -1.5856678970   -0.5514840624
C        0.3482331706    0.6332965578    0.7796522209
N        0.9872534521    1.0250695880    1.6642482151
