6    
Image 0/11, Energy =  -169.0541225047 (+0.000 kcal/mol)
C       -0.3739981687   -1.4835649798   -1.4070811137
C       -0.1593894936   -0.6267231344   -0.5957044914
H        0.0347237090    0.1461263812    0.1365769974
H       -0.5620255952   -2.2351986645   -2.1185513169
C        0.4238299506    1.6832116562    1.5959377344
N        0.6368595980    2.5161487414    2.3888221955
6    
Image 1/11, Energy =  -169.0532269439 (+0.562 kcal/mol)
C       -0.3457162008   -1.4735414413   -1.3707037922
C       -0.2676253571   -0.5368190882   -0.6281104104
H       -0.1448853786    0.2821452658    0.0654057438
H       -0.3975484396   -2.3005417357   -2.0121929310
C        0.3793582662    1.6805341293    1.5367268677
N        0.7764171097    2.3482228706    2.4088745258
6    
Image 2/11, Energy =  -169.0509572982 (+1.986 kcal/mol)
C       -0.3149452293   -1.4539153205   -1.3244951086
C       -0.3748198353   -0.4550957538   -0.6665996564
H       -0.3273720015    0.4039570538   -0.0173547153
H       -0.2309568823   -2.3360339655   -1.8824011518
C        0.3478494617    1.6799234766    1.4902553054
N        0.9002444863    2.1611645103    2.4005953289
6    
Image 3/11, Energy =  -169.0475301398 (+4.137 kcal/mol)
C       -0.2812687449   -1.4203973173   -1.2656623679
C       -0.4782741899   -0.3808995042   -0.7068347608
H       -0.5154099466    0.5121326511   -0.1133054603
H       -0.0639669608   -2.3346515147   -1.7264182593
C        0.3360140625    1.6632373020    1.4496597021
N        1.0029057795    1.9605783842    2.3625611470
6    
Image 4/11, Energy =  -169.0429042772 (+7.040 kcal/mol)
C       -0.2457913065   -1.3692618193   -1.1951316414
C       -0.5762437555   -0.3125224096   -0.7445657351
H       -0.7102937016    0.6072142933   -0.2227964815
H        0.1016639609   -2.2924678936   -1.5428666295
C        0.3460768059    1.6114619047    1.4045953818
N        1.0845879969    1.7555759255    2.3007651055
6    
Image 5/11, Energy =  -169.0368924527 (+10.812 kcal/mol)
C       -0.2125145398   -1.3000041534   -1.1152179552
C       -0.6612611289   -0.2473713789   -0.7728723656
H       -0.9080237914    0.6874823839   -0.3430887383
H        0.2614199786   -2.2056461035   -1.3343313204
C        0.3734410906    1.5097168466    1.3440211741
N        1.1469383916    1.5558224064    2.2214892046
6    
Image 6/11, Energy =  -169.0282621713 (+16.228 kcal/mol)
C       -0.1919629103   -1.2201230686   -1.0386309854
C       -0.7127783888   -0.1795705692   -0.7713430959
H       -1.0921434746    0.7491536675   -0.4627727088
H        0.4045717658   -2.0745050399   -1.1128949167
C        0.4078904944    1.3436097126    1.2554292757
N        1.1844225150    1.3814352985    2.1302124299
6    
Image 7/11, Energy =  -169.0122052314 (+26.303 kcal/mol)
C       -0.2031996492   -1.1545600874   -1.0008892198
C       -0.6933621936   -0.0979868733   -0.6990130940
H       -1.2314958451    0.7839762892   -0.5606907788
H        0.5111264645   -1.9142069362   -0.9064419686
C        0.4362362122    1.1244676868    1.1386065171
N        1.1806950134    1.2583099217    2.0284285424
6    
Image 8/11, Energy =  -168.9962144128 (+36.338 kcal/mol)
C       -0.2428493331   -1.1177146619   -1.0088370354
C       -0.5989899752    0.0006117886   -0.5503326630
H       -1.3001075805    0.7868080910   -0.6172396416
H        0.5690044414   -1.7633688815   -0.7499186207
C        0.4440856191    0.9091544879    1.0117607768
N        1.1288568307    1.1845091767    1.9145671822
6    
Image 9/11, Energy =  -169.0180301512 (+22.648 kcal/mol)
C       -0.2621619611   -1.0847069640   -1.0066651385
C       -0.4908037803    0.0858739830   -0.3955623916
H       -1.2785604436    0.7876070923   -0.6100187924
H        0.5820686725   -1.7057900675   -0.6886779642
C        0.3963070517    0.7821837595    0.8999781222
N        1.0531504641    1.1348321972    1.8009461632
6    
Image 10/11, Energy =  -169.0450280987 (+5.707 kcal/mol)
C       -0.2621558455   -1.0375648643   -0.9849831972
C       -0.4394724183    0.1448813965   -0.3146451553
H       -1.2369288594    0.8199852189   -0.5927880212
H        0.6030705059   -1.5856678970   -0.5514840624
C        0.3482331706    0.6332965578    0.7796522209
N        0.9872534521    1.0250695880    1.6642482151
