6    
Image 0/11, Energy =  -169.0541225047 (+0.000 kcal/mol)
C       -0.3739981687   -1.4835649798   -1.4070811137
C       -0.1593894936   -0.6267231344   -0.5957044914
H        0.0347237090    0.1461263812    0.1365769974
H       -0.5620255952   -2.2351986645   -2.1185513169
C        0.4238299506    1.6832116562    1.5959377344
N        0.6368595980    2.5161487414    2.3888221955
6    
Image 1/11, Energy =  -169.0532597407 (+0.541 kcal/mol)
C       -0.3478656461   -1.4747314768   -1.3733085053
C       -0.2672121923   -0.5374494631   -0.6295358841
H       -0.1429586515    0.2785126003    0.0661918186
H       -0.3996227667   -2.3009384386   -2.0151496317
C        0.3862984505    1.6776962253    1.5416857397
N        0.7713608056    2.3569105534    2.4101164663
6    
Image 2/11, Energy =  -169.0510400954 (+1.934 kcal/mol)
C       -0.3180159195   -1.4546642909   -1.3292828572
C       -0.3743010700   -0.4586086618   -0.6682325492
H       -0.3242474253    0.3985906540   -0.0163408264
H       -0.2348064843   -2.3373265479   -1.8877507754
C        0.3582867223    1.6747939500    1.4956742373
N        0.8930841762    2.1772148976    2.4059327730
6    
Image 3/11, Energy =  -169.0476580472 (+4.057 kcal/mol)
C       -0.2844035808   -1.4219897312   -1.2729278848
C       -0.4778087260   -0.3859275662   -0.7065269358
H       -0.5101992131    0.5066524477   -0.1111218618
H       -0.0695496983   -2.3375015311   -1.7340222318
C        0.3473134806    1.6578877552    1.4526493788
N        0.9946477369    1.9808786268    2.3719495361
6    
Image 4/11, Energy =  -169.0431511969 (+6.885 kcal/mol)
C       -0.2497327858   -1.3737572381   -1.2032965121
C       -0.5738308267   -0.3188278291   -0.7426666535
H       -0.7009392793    0.6012948260   -0.2181807662
H        0.0935583485   -2.2978812284   -1.5551970912
C        0.3557776485    1.6105409158    1.4059479775
N        1.0751668947    1.7786305551    2.3133930451
6    
Image 5/11, Energy =  -169.0372398866 (+10.594 kcal/mol)
C       -0.2181731709   -1.3072549052   -1.1231476817
C       -0.6572422672   -0.2541306529   -0.7709638718
H       -0.8962299654    0.6813421010   -0.3367140690
H        0.2526298536   -2.2131196227   -1.3499025249
C        0.3818589445    1.5147305639    1.3438712661
N        1.1371566059    1.5784325170    2.2368568803
6    
Image 6/11, Energy =  -169.0285967240 (+16.018 kcal/mol)
C       -0.1978134643   -1.2266025910   -1.0454204490
C       -0.7113093454   -0.1841279448   -0.7711831672
H       -1.0859862227    0.7448636735   -0.4583803328
H        0.4006700994   -2.0790922965   -1.1207244180
C        0.4169568386    1.3552274716    1.2531995976
N        1.1774820956    1.3897316881    2.1425087679
6    
Image 7/11, Energy =  -169.0122293471 (+26.288 kcal/mol)
C       -0.2072320169   -1.1569857574   -1.0033776382
C       -0.6929663815   -0.0988845598   -0.6997354450
H       -1.2325982188    0.7814265085   -0.5597613774
H        0.5125380227   -1.9105534934   -0.9022871389
C        0.4428343258    1.1337988408    1.1322226511
N        1.1774242707    1.2511984622    2.0329389468
6    
Image 8/11, Energy =  -168.9961965406 (+36.349 kcal/mol)
C       -0.2435495248   -1.1183676379   -1.0085688813
C       -0.5979993651    0.0013012288   -0.5500529306
H       -1.3003468920    0.7856533436   -0.6161586656
H        0.5696837684   -1.7609089473   -0.7476687779
C        0.4446127860    0.9130432423    1.0080818428
N        1.1275992300    1.1792787712    1.9143674109
6    
Image 9/11, Energy =  -169.0192193228 (+21.902 kcal/mol)
C       -0.2619327761   -1.0835879206   -1.0045557418
C       -0.4871086433    0.0898967856   -0.3922180015
H       -1.2791615795    0.7874694457   -0.6091232390
H        0.5827650942   -1.7054591237   -0.6867987470
C        0.3959786384    0.7803870020    0.8939164634
N        1.0494592693    1.1312938116    1.7987792646
6    
Image 10/11, Energy =  -169.0450280987 (+5.707 kcal/mol)
C       -0.2621558455   -1.0375648643   -0.9849831972
C       -0.4394724183    0.1448813965   -0.3146451553
H       -1.2369288594    0.8199852189   -0.5927880212
H        0.6030705059   -1.5856678970   -0.5514840624
C        0.3482331706    0.6332965578    0.7796522209
N        0.9872534521    1.0250695880    1.6642482151
