6    
Image 0/11, Energy =  -169.0541225045 (+0.000 kcal/mol)
C       -0.3739981793   -1.4835649428   -1.4070811878
C       -0.1593894830   -0.6267231609   -0.5957044385
H        0.0347237196    0.1461263335    0.1365770662
H       -0.5620256323   -2.2351985692   -2.1185514810
C        0.4238299770    1.6832115821    1.5959378403
N        0.6368596033    2.5161487572    2.3888222008
6    
Image 1/11, Energy =  -169.0535365376 (+0.368 kcal/mol)
C       -0.3516803236   -1.4839632576   -1.3869940077
C       -0.2539689065   -0.5547809182   -0.6352362752
H       -0.1257519768    0.2601070521    0.0638629206
H       -0.4242973616   -2.3068989105   -2.0369141367
C        0.3776982860    1.7024803429    1.5662381370
N        0.7780002797    2.3830556899    2.4290433642
6    
Image 2/11, Energy =  -169.0520853855 (+1.278 kcal/mol)
C       -0.3271171880   -1.4751924620   -1.3570588039
C       -0.3386461025   -0.4930369036   -0.6692905644
H       -0.2748748627    0.3577651242   -0.0071100039
H       -0.2925036100   -2.3476758911   -1.9426853616
C        0.3388704525    1.7238891106    1.5410298550
N        0.8942713082    2.2342510209    2.4351148826
6    
Image 3/11, Energy =  -169.0497349544 (+2.753 kcal/mol)
C       -0.2945882944   -1.4520835749   -1.3063934542
C       -0.4166894082   -0.4294967629   -0.6929824609
H       -0.4284421277    0.4559783465   -0.0806827952
H       -0.1552931912   -2.3586445330   -1.8194237423
C        0.2914856253    1.7558153477    1.5060797330
N        1.0035273944    2.0284311773    2.3934027218
6    
Image 4/11, Energy =  -169.0459228419 (+5.145 kcal/mol)
C       -0.2543695604   -1.4093389983   -1.2307531780
C       -0.5136549958   -0.3553385210   -0.7244664083
H       -0.6263147464    0.5629651492   -0.1859041814
H        0.0158212264   -2.3385247183   -1.6398503128
C        0.2758527300    1.7713834027    1.4759443643
N        1.1026653443    1.7688536853    2.3050297170
6    
Image 5/11, Energy =  -169.0408999521 (+8.297 kcal/mol)
C       -0.2119176273   -1.3469580662   -1.1385025121
C       -0.6208775334   -0.2871362474   -0.7635498498
H       -0.8565249879    0.6520746272   -0.3254992242
H        0.1975140747   -2.2721594475   -1.4201765505
C        0.3110926559    1.7498625168    1.4507377595
N        1.1807134154    1.5043166154    2.1969903773
6    
Image 6/11, Energy =  -169.0352347928 (+11.852 kcal/mol)
C       -0.1750246855   -1.2581788730   -1.0353303329
C       -0.7208589683   -0.2216643752   -0.7997324837
H       -1.0902242563    0.7156547699   -0.4804837164
H        0.3674745972   -2.1466846665   -1.1729227927
C        0.3623364039    1.6512466424    1.4191259119
N        1.2562969022    1.2596264961    2.0693434128
6    
Image 7/11, Energy =  -169.0287311422 (+15.933 kcal/mol)
C       -0.1541148529   -1.1597991278   -0.9569283742
C       -0.7925376720   -0.1598951543   -0.8221035533
H       -1.2658876830    0.7545424313   -0.6015895597
H        0.5007975593   -1.9801164144   -0.9504909499
C        0.3913743457    1.4038758540    1.3330234604
N        1.3203682934    1.1413924021    1.9980889752
6    
Image 8/11, Energy =  -169.0140881224 (+25.122 kcal/mol)
C       -0.1768548266   -1.1162821192   -0.9527974394
C       -0.7525601020   -0.0860775940   -0.7358847804
H       -1.3203252241    0.7859567827   -0.6227064874
H        0.5649395920   -1.8441014746   -0.8075390282
C        0.4045339385    1.1247156548    1.1719719763
N        1.2802666122    1.1357887405    1.9469557572
6    
Image 9/11, Energy =  -168.9961559164 (+36.375 kcal/mol)
C       -0.2386846676   -1.1097612230   -1.0030879898
C       -0.6130606725    0.0036215149   -0.5451089524
H       -1.3205336056    0.7830416173   -0.6235241472
H        0.5766868379   -1.7434837323   -0.7256210980
C        0.4199296021    0.9074818215    1.0224082382
N        1.1756624955    1.1590999918    1.8749339474
6    
Image 10/11, Energy =  -169.0450280986 (+5.707 kcal/mol)
C       -0.2621558402   -1.0375648166   -0.9849832183
C       -0.4394815308    0.1448746231   -0.3146355878
H       -1.2369564931    0.8199646233   -0.5927588847
H        0.6030896833   -1.5856535457   -0.5515042875
C        0.3482367849    0.6332992196    0.7796484267
N        0.9872674012    1.0250798964    1.6642335463
