6    
Image 0/11, Energy =  -169.0541225045 (+0.000 kcal/mol)
C       -0.3739981793   -1.4835649428   -1.4070811878
C       -0.1593894830   -0.6267231609   -0.5957044385
H        0.0347237196    0.1461263335    0.1365770662
H       -0.5620256323   -2.2351985692   -2.1185514810
C        0.4238299770    1.6832115821    1.5959378403
N        0.6368596033    2.5161487572    2.3888222008
6    
Image 1/11, Energy =  -169.0535365376 (+0.368 kcal/mol)
C       -0.3516803236   -1.4839632576   -1.3869940077
C       -0.2539689065   -0.5547809182   -0.6352362752
H       -0.1257519768    0.2601070521    0.0638629206
H       -0.4242973616   -2.3068989105   -2.0369141367
C        0.3776982860    1.7024803429    1.5662381370
N        0.7780002797    2.3830556899    2.4290433642
6    
Image 2/11, Energy =  -169.0520853855 (+1.278 kcal/mol)
C       -0.3271171880   -1.4751924620   -1.3570588039
C       -0.3386461025   -0.4930369036   -0.6692905644
H       -0.2748748627    0.3577651242   -0.0071100039
H       -0.2925036100   -2.3476758911   -1.9426853616
C        0.3388704525    1.7238891106    1.5410298550
N        0.8942713082    2.2342510209    2.4351148826
6    
Image 3/11, Energy =  -169.0497552483 (+2.740 kcal/mol)
C       -0.2954210643   -1.4530766306   -1.3075566348
C       -0.4176139912   -0.4299257272   -0.6951016696
H       -0.4293876619    0.4546730744   -0.0816991529
H       -0.1552083588   -2.3593530094   -1.8208425249
C        0.2953100709    1.7534797255    1.5080255512
N        1.0023210035    2.0342025680    2.3971744331
6    
Image 4/11, Energy =  -169.0459228419 (+5.145 kcal/mol)
C       -0.2543695604   -1.4093389983   -1.2307531780
C       -0.5136549958   -0.3553385210   -0.7244664083
H       -0.6263147464    0.5629651492   -0.1859041814
H        0.0158212264   -2.3385247183   -1.6398503128
C        0.2758527300    1.7713834027    1.4759443643
N        1.1026653443    1.7688536853    2.3050297170
6    
Image 5/11, Energy =  -169.0408999521 (+8.297 kcal/mol)
C       -0.2119176273   -1.3469580662   -1.1385025121
C       -0.6208775334   -0.2871362474   -0.7635498498
H       -0.8565249879    0.6520746272   -0.3254992242
H        0.1975140747   -2.2721594475   -1.4201765505
C        0.3110926559    1.7498625168    1.4507377595
N        1.1807134154    1.5043166154    2.1969903773
6    
Image 6/11, Energy =  -169.0352252044 (+11.858 kcal/mol)
C       -0.1744455276   -1.2588146427   -1.0353270158
C       -0.7225145425   -0.2234619040   -0.8001962700
H       -1.0929607669    0.7138509231   -0.4824368482
H        0.3690010269   -2.1467430097   -1.1728467149
C        0.3695546748    1.6569654285    1.4145054029
N        1.2513651293    1.2582031993    2.0763014453
6    
Image 7/11, Energy =  -169.0286909073 (+15.959 kcal/mol)
C       -0.1532796917   -1.1580769714   -0.9524753413
C       -0.7955162998   -0.1601504674   -0.8215702759
H       -1.2719822115    0.7536317270   -0.6052765477
H        0.5051667232   -1.9755645777   -0.9422637226
C        0.3996641184    1.4158649412    1.3255007472
N        1.3159473521    1.1242953394    1.9960851388
6    
Image 8/11, Energy =  -169.0141405287 (+25.089 kcal/mol)
C       -0.1749337292   -1.1135813873   -0.9488194213
C       -0.7552264284   -0.0851159884   -0.7368170625
H       -1.3261405569    0.7856056532   -0.6280873587
H        0.5682630246   -1.8394751183   -0.8007816996
C        0.4059837146    1.1286026374    1.1699241823
N        1.2820539655    1.1239641939    1.9445813581
6    
Image 9/11, Energy =  -168.9961227751 (+36.395 kcal/mol)
C       -0.2364176421   -1.1083377213   -0.9989572872
C       -0.6156625108    0.0051617207   -0.5464511712
H       -1.3245055546    0.7831889417   -0.6262200583
H        0.5805857955   -1.7388881454   -0.7195022025
C        0.4173578963    0.9113841608    1.0196252977
N        1.1786420056    1.1474910338    1.8715054197
6    
Image 10/11, Energy =  -169.0450280986 (+5.707 kcal/mol)
C       -0.2621558402   -1.0375648166   -0.9849832183
C       -0.4394815308    0.1448746231   -0.3146355878
H       -1.2369564931    0.8199646233   -0.5927588847
H        0.6030896833   -1.5856535457   -0.5515042875
C        0.3482367849    0.6332992196    0.7796484267
N        0.9872674012    1.0250798964    1.6642335463
