6    
Image 0/11, Energy =  -169.0541225047 (+0.000 kcal/mol)
C       -0.3739981687   -1.4835649798   -1.4070811137
C       -0.1593894936   -0.6267231344   -0.5957044914
H        0.0347237090    0.1461263812    0.1365769974
H       -0.5620255952   -2.2351986645   -2.1185513169
C        0.4238299506    1.6832116562    1.5959377344
N        0.6368595980    2.5161487414    2.3888221955
6    
Image 1/11, Energy =  -169.0531377636 (+0.618 kcal/mol)
C       -0.3525328782   -1.4671960998   -1.3790195340
C       -0.2666763256   -0.5335228797   -0.6331145882
H       -0.1252334099    0.2716871269    0.0711873815
H       -0.4119793684   -2.2972782167   -2.0154434951
C        0.4209971686    1.6325909364    1.5639331770
N        0.7354248132    2.3937191327    2.3924570614
6    
Image 2/11, Energy =  -169.0505432805 (+2.246 kcal/mol)
C       -0.3257753319   -1.4466383381   -1.3411410487
C       -0.3763245780   -0.4518222338   -0.6756015626
H       -0.2972983311    0.3891061610   -0.0084307877
H       -0.2551304330   -2.3336647174   -1.8922042363
C        0.4181838977    1.5886574945    1.5262862527
N        0.8363447755    2.2543616345    2.3910913833
6    
Image 3/11, Energy =  -169.0467525482 (+4.625 kcal/mol)
C       -0.2958107683   -1.4159886587   -1.2896006586
C       -0.4812533034   -0.3827573593   -0.7173044041
H       -0.4839566927    0.4955163233   -0.1030178635
H       -0.0925516590   -2.3358898465   -1.7456053161
C        0.4200823209    1.5483515127    1.4782174337
N        0.9334901012    2.0907680297    2.3773108080
6    
Image 4/11, Energy =  -169.0421667489 (+7.502 kcal/mol)
C       -0.2631600508   -1.3760833571   -1.2208743874
C       -0.5765376758   -0.3210722483   -0.7516483763
H       -0.6806781693    0.5884537210   -0.2106391219
H        0.0718721341   -2.2992484200   -1.5775585312
C        0.4255763231    1.5109132056    1.4168878104
N        1.0229274374    1.8970371009    2.3438326055
6    
Image 5/11, Energy =  -169.0368123971 (+10.862 kcal/mol)
C       -0.2280254635   -1.3173978002   -1.1373886704
C       -0.6577657818   -0.2640299713   -0.7726347142
H       -0.8794645569    0.6672225078   -0.3243511875
H        0.2331384376   -2.2225245773   -1.3840546808
C        0.4355428235    1.4641862941    1.3382395736
N        1.0965745398    1.6725435490    2.2801896780
6    
Image 6/11, Energy =  -169.0297905132 (+15.269 kcal/mol)
C       -0.1957374179   -1.2416356872   -1.0494882871
C       -0.7120634756   -0.1998222990   -0.7683909049
H       -1.0652460858    0.7290576913   -0.4331809650
H        0.3809494591   -2.1030975948   -1.1672706429
C        0.4485633696    1.3797129239    1.2393105894
N        1.1435341498    1.4357849681    2.1790202089
6    
Image 7/11, Energy =  -169.0162930748 (+23.738 kcal/mol)
C       -0.1924594793   -1.1648596558   -0.9874596983
C       -0.6994612429   -0.1188204308   -0.7087502839
H       -1.2146198970    0.7720774031   -0.5272149711
H        0.4970647662   -1.9530830676   -0.9549623400
C        0.4572573516    1.2108925086    1.1197400461
N        1.1522185018    1.2537932442    2.0586472456
6    
Image 8/11, Energy =  -168.9961211199 (+36.396 kcal/mol)
C       -0.2279221033   -1.1168432765   -0.9791221170
C       -0.6057708474   -0.0012539216   -0.5610032508
H       -1.3047654934    0.7853869601   -0.5998190910
H        0.5717104701   -1.7899562358   -0.7738396191
C        0.4498513827    0.9719773776    0.9869309836
N        1.1168965932    1.1506890972    1.9268530923
6    
Image 9/11, Energy =  -169.0121725718 (+26.324 kcal/mol)
C       -0.2552062100   -1.0892764613   -0.9900855303
C       -0.4976377773    0.0794010505   -0.4139096380
H       -1.2814112172    0.7838745042   -0.5994703782
H        0.5793517028   -1.7295281424   -0.7142899816
C        0.4038094172    0.8307463680    0.8952582354
N        1.0510940868    1.1247826820    1.8224972915
6    
Image 10/11, Energy =  -169.0450280987 (+5.707 kcal/mol)
C       -0.2621558455   -1.0375648643   -0.9849831972
C       -0.4394724183    0.1448813965   -0.3146451553
H       -1.2369288594    0.8199852189   -0.5927880212
H        0.6030705059   -1.5856678970   -0.5514840624
C        0.3482331706    0.6332965578    0.7796522209
N        0.9872534521    1.0250695880    1.6642482151
