6    
Image 0/11, Energy =  -169.0541225047 (+0.000 kcal/mol)
C       -0.3739981687   -1.4835649798   -1.4070811137
C       -0.1593894936   -0.6267231344   -0.5957044914
H        0.0347237090    0.1461263812    0.1365769974
H       -0.5620255952   -2.2351986645   -2.1185513169
C        0.4238299506    1.6832116562    1.5959377344
N        0.6368595980    2.5161487414    2.3888221955
6    
Image 1/11, Energy =  -169.0456756990 (+5.300 kcal/mol)
C       -0.3577196674   -1.4537002749   -1.3794701773
C       -0.3080994764   -0.5242485061   -0.5608708609
H       -0.0573999480    0.3306302932    0.0763516258
H       -0.4044108219   -2.2831048370   -2.0177473944
C        0.4306004978    1.5620002559    1.5505604659
N        0.6970294208    2.3684230689    2.3311763411
6    
Image 2/11, Energy =  -169.0423818872 (+7.367 kcal/mol)
C       -0.3209538926   -1.4321690764   -1.3495844491
C       -0.4053258328   -0.4575640639   -0.6151274062
H       -0.2329129113    0.4507236044   -0.0422666938
H       -0.2758190301   -2.3296487384   -1.9011659885
C        0.4693797053    1.4676967520    1.5903806750
N        0.7656319661    2.3009615219    2.3177638622
6    
Image 3/11, Energy =  -169.0411785358 (+8.122 kcal/mol)
C       -0.2944531478   -1.4054526525   -1.3106481448
C       -0.4490893906   -0.3806592330   -0.6809085556
H       -0.4536788202    0.5220364183   -0.1129351438
H       -0.1452712436   -2.3372549654   -1.7643553923
C        0.5216355747    1.3953739045    1.5576190946
N        0.8208570230    2.2059565239    2.3112281374
6    
Image 4/11, Energy =  -169.0265303389 (+17.314 kcal/mol)
C       -0.2760717759   -1.3806945568   -1.2584763757
C       -0.4956377662   -0.2982318236   -0.6556562730
H       -0.6993863888    0.6160706486   -0.2165827280
H        0.0385391428   -2.2973277996   -1.5943843955
C        0.4910590256    1.3858897081    1.4171197453
N        0.9414977573    1.9742938279    2.3079800265
6    
Image 5/11, Energy =  -169.0252318483 (+18.129 kcal/mol)
C       -0.2559933156   -1.3144420432   -1.1688656557
C       -0.5535130302   -0.2333388842   -0.6769415392
H       -0.9537097036    0.7003818623   -0.3500283190
H        0.2314927200   -2.2385374413   -1.3925923266
C        0.4828896833    1.3604394866    1.3270565407
N        1.0488336412    1.7254970250    2.2613712999
6    
Image 6/11, Energy =  -169.0159983175 (+23.923 kcal/mol)
C       -0.2422170015   -1.2538962678   -1.0745188023
C       -0.5943319012   -0.1643961195   -0.6899565663
H       -1.1496940187    0.7487484760   -0.4510356058
H        0.3903098145   -2.1426698830   -1.2042454137
C        0.4896214274    1.3103342612    1.2371562719
N        1.1063116794    1.5018795381    2.1826001162
6    
Image 7/11, Energy =  -169.0050516447 (+30.792 kcal/mol)
C       -0.2323119256   -1.1922441659   -0.9785913795
C       -0.6227956408   -0.1023415618   -0.6231160624
H       -1.2574976050    0.7879330902   -0.5472392545
H        0.5183218695   -1.9983768819   -1.0290324096
C        0.4728956700    1.2312576507    1.1190106063
N        1.1213876363    1.2737718690    2.0589684993
6    
Image 8/11, Energy =  -168.9892071186 (+40.735 kcal/mol)
C       -0.2400681064   -1.1350512139   -0.8830362372
C       -0.6117667967   -0.0074287025   -0.5147977197
H       -1.3252075310    0.8143553155   -0.6251664893
H        0.6358493803   -1.8069590445   -0.8347105977
C        0.4355265504    1.0952483156    0.9695368424
N        1.1056665034    1.0398353301    1.8881741969
6    
Image 9/11, Energy =  -169.0142479720 (+25.022 kcal/mol)
C       -0.2621482162   -1.1049657936   -0.8879192037
C       -0.5266509070    0.1168619758   -0.3808240845
H       -1.3133244322    0.8279873034   -0.6567789292
H        0.6778332335   -1.6488364992   -0.6521424575
C        0.3626892313    0.8531492363    0.8402288963
N        1.0616010869    0.9558037813    1.7374357778
6    
Image 10/11, Energy =  -169.0450280987 (+5.707 kcal/mol)
C       -0.2621558455   -1.0375648643   -0.9849831972
C       -0.4394724183    0.1448813965   -0.3146451553
H       -1.2369288594    0.8199852189   -0.5927880212
H        0.6030705059   -1.5856678970   -0.5514840624
C        0.3482331706    0.6332965578    0.7796522209
N        0.9872534521    1.0250695880    1.6642482151
