6    
Image 0/11, Energy =  -169.0541225047 (+0.000 kcal/mol)
C       -0.3739981687   -1.4835649798   -1.4070811137
C       -0.1593894936   -0.6267231344   -0.5957044914
H        0.0347237090    0.1461263812    0.1365769974
H       -0.5620255952   -2.2351986645   -2.1185513169
C        0.4238299506    1.6832116562    1.5959377344
N        0.6368595980    2.5161487414    2.3888221955
6    
Image 1/11, Energy =  -169.0532868582 (+0.524 kcal/mol)
C       -0.3490259181   -1.4731573897   -1.3775133623
C       -0.2694206114   -0.5390791938   -0.6309415035
H       -0.1382079920    0.2750962221    0.0664241469
H       -0.4028899769   -2.3018813082   -2.0169899285
C        0.3967429227    1.6685478519    1.5493200728
N        0.7628015748    2.3704738183    2.4097005780
6    
Image 2/11, Energy =  -169.0510606153 (+1.921 kcal/mol)
C       -0.3220827691   -1.4545035814   -1.3358099002
C       -0.3785585584   -0.4594323463   -0.6722453473
H       -0.3158892469    0.3923180519   -0.0137001712
H       -0.2393271474   -2.3384586606   -1.8926573675
C        0.3775912801    1.6563688129    1.5057124577
N        0.8782664406    2.2037077244    2.4087003302
6    
Image 3/11, Energy =  -169.0476784370 (+4.044 kcal/mol)
C       -0.2915232851   -1.4249897535   -1.2804286127
C       -0.4823730178   -0.3869633380   -0.7148706542
H       -0.5003965664    0.4972539369   -0.1063819920
H       -0.0747607835   -2.3392799098   -1.7425624774
C        0.3695896292    1.6372157524    1.4612608238
N        0.9794640228    2.0167633134    2.3829829129
6    
Image 4/11, Energy =  -169.0432205312 (+6.841 kcal/mol)
C       -0.2561297063   -1.3781497839   -1.2121095355
C       -0.5780853129   -0.3225307684   -0.7505887027
H       -0.6906696483    0.5911743785   -0.2118765963
H        0.0870140911   -2.3014043496   -1.5656748004
C        0.3759911616    1.5964294713    1.4093900796
N        1.0618794142    1.8144810536    2.3308595545
6    
Image 5/11, Energy =  -169.0376174272 (+10.357 kcal/mol)
C       -0.2200481276   -1.3132990758   -1.1312720095
C       -0.6594969154   -0.2612093984   -0.7754770780
H       -0.8810420720    0.6711490800   -0.3242963749
H        0.2413159201   -2.2219689268   -1.3665745431
C        0.3958917957    1.5172430161    1.3421800091
N        1.1233793990    1.6080853064    2.2554399950
6    
Image 6/11, Energy =  -169.0296285670 (+15.370 kcal/mol)
C       -0.1953704269   -1.2342244602   -1.0486461097
C       -0.7129443377   -0.1939048535   -0.7754898668
H       -1.0667467537    0.7364059275   -0.4419451356
H        0.3860618647   -2.0955811921   -1.1462521207
C        0.4263103694    1.3734129383    1.2512062487
N        1.1626892847    1.4138916413    2.1611269824
6    
Image 7/11, Energy =  -169.0134516534 (+25.521 kcal/mol)
C       -0.2048316314   -1.1593975396   -1.0003602375
C       -0.6991048013   -0.1051462542   -0.7066973162
H       -1.2293982666    0.7780977484   -0.5549649724
H        0.5089344672   -1.9182260095   -0.9116109582
C        0.4543976598    1.1522489681    1.1276875158
N        1.1700025737    1.2524230878    2.0459459668
6    
Image 8/11, Energy =  -168.9961836458 (+36.357 kcal/mol)
C       -0.2479217656   -1.1169612507   -1.0054549780
C       -0.5958938616    0.0105426803   -0.5458237688
H       -1.3149939233    0.7799836642   -0.6269335424
H        0.5776451996   -1.7378174025   -0.7252385777
C        0.4539134448    0.9089155920    0.9913876857
N        1.1272509086    1.1553367175    1.9120631796
6    
Image 9/11, Energy =  -169.0177038705 (+22.853 kcal/mol)
C       -0.2623663664   -1.0858605542   -1.0006855809
C       -0.4978430381    0.0898195240   -0.4045943855
H       -1.2926185195    0.7833744870   -0.6192716159
H        0.5906123232   -1.6833828465   -0.6673515476
C        0.4032292527    0.7855242645    0.8900559640
N        1.0589863513    1.1105251257    1.8018471645
6    
Image 10/11, Energy =  -169.0450280987 (+5.707 kcal/mol)
C       -0.2621558455   -1.0375648643   -0.9849831972
C       -0.4394724183    0.1448813965   -0.3146451553
H       -1.2369288594    0.8199852189   -0.5927880212
H        0.6030705059   -1.5856678970   -0.5514840624
C        0.3482331706    0.6332965578    0.7796522209
N        0.9872534521    1.0250695880    1.6642482151
