6    
Image 0/11, Energy =  -169.0541225047 (+0.000 kcal/mol)
C       -0.3739981687   -1.4835649798   -1.4070811137
C       -0.1593894936   -0.6267231344   -0.5957044914
H        0.0347237090    0.1461263812    0.1365769974
H       -0.5620255952   -2.2351986645   -2.1185513169
C        0.4238299506    1.6832116562    1.5959377344
N        0.6368595980    2.5161487414    2.3888221955
6    
Image 1/11, Energy =  -169.0530462417 (+0.675 kcal/mol)
C       -0.3507181348   -1.4646447216   -1.3807583062
C       -0.2674038924   -0.5325961165   -0.6323771893
H       -0.1208984103    0.2727864832    0.0713495396
H       -0.4163103629   -2.2968465225   -2.0143812103
C        0.4276671262    1.6208663601    1.5697779221
N        0.7276636741    2.4004345170    2.3863892464
6    
Image 2/11, Energy =  -169.0502665891 (+2.420 kcal/mol)
C       -0.3239605731   -1.4436516171   -1.3408867768
C       -0.3764487394   -0.4492645204   -0.6749784457
H       -0.2904585604    0.3908953716   -0.0056374205
H       -0.2614038423   -2.3314530886   -1.8922570045
C        0.4299841867    1.5670182637    1.5318789646
N        0.8222875281    2.2664555911    2.3818806831
6    
Image 3/11, Energy =  -169.0463748952 (+4.862 kcal/mol)
C       -0.2948580178   -1.4155274510   -1.2864230369
C       -0.4803020837   -0.3776470053   -0.7200744638
H       -0.4786315804    0.4970542573   -0.0990444629
H       -0.0986481161   -2.3345795529   -1.7483562703
C        0.4339410569    1.5224340267    1.4832279465
N        0.9184987399    2.1082657265    2.3706702867
6    
Image 4/11, Energy =  -169.0417096204 (+7.789 kcal/mol)
C       -0.2611395383   -1.3754472858   -1.2180601304
C       -0.5765636203   -0.3179577163   -0.7534178270
H       -0.6797558838    0.5906914610   -0.2108200665
H        0.0669230224   -2.2995152124   -1.5813265998
C        0.4401924379    1.4834107125    1.4208293066
N        1.0103435803    1.9188180431    2.3427953161
6    
Image 5/11, Energy =  -169.0364294837 (+11.103 kcal/mol)
C       -0.2242380517   -1.3159058741   -1.1330643225
C       -0.6590650629   -0.2644319772   -0.7729975861
H       -0.8798694437    0.6663100498   -0.3259764698
H        0.2276532630   -2.2215458055   -1.3904466026
C        0.4478741797    1.4434980344    1.3381562258
N        1.0876451141    1.6920755749    2.2843287541
6    
Image 6/11, Energy =  -169.0296936381 (+15.329 kcal/mol)
C       -0.1913160167   -1.2392380654   -1.0408508193
C       -0.7156870392   -0.2022848565   -0.7679420086
H       -1.0665347284    0.7268667740   -0.4349660013
H        0.3786046386   -2.1012707280   -1.1744869845
C        0.4559788276    1.3739638180    1.2353315169
N        1.1389543172    1.4419630605    2.1829142953
6    
Image 7/11, Energy =  -169.0167036357 (+23.481 kcal/mol)
C       -0.1861119774   -1.1645482813   -0.9791758911
C       -0.7056698611   -0.1196639050   -0.7059459236
H       -1.2146969309    0.7693076414   -0.5281019623
H        0.4973896075   -1.9511678919   -0.9585393420
C        0.4587659153    1.2224420946    1.1145425262
N        1.1503232467    1.2436303441    2.0572205909
6    
Image 8/11, Energy =  -168.9964380087 (+36.198 kcal/mol)
C       -0.2217916663   -1.1171006264   -0.9733761901
C       -0.6087217048   -0.0116910701   -0.5650611216
H       -1.2941723219    0.7823828532   -0.5896098460
H        0.5641322100   -1.8060024462   -0.7944126651
C        0.4456083869    1.0014458606    0.9895713353
N        1.1149450975    1.1509654301    1.9328884856
6    
Image 9/11, Energy =  -169.0121496439 (+26.338 kcal/mol)
C       -0.2527222149   -1.0901879103   -0.9864051529
C       -0.4981420991    0.0807018353   -0.4103711185
H       -1.2813906480    0.7880734919   -0.5957027133
H        0.5832161795   -1.7356709532   -0.7186793835
C        0.3996425483    0.8370514613    0.8909276251
N        1.0493962362    1.1200320761    1.8202307419
6    
Image 10/11, Energy =  -169.0450280987 (+5.707 kcal/mol)
C       -0.2621558455   -1.0375648643   -0.9849831972
C       -0.4394724183    0.1448813965   -0.3146451553
H       -1.2369288594    0.8199852189   -0.5927880212
H        0.6030705059   -1.5856678970   -0.5514840624
C        0.3482331706    0.6332965578    0.7796522209
N        0.9872534521    1.0250695880    1.6642482151
