6    
Image 0/11, Energy =  -169.0541225044 (+0.000 kcal/mol)
C       -0.3739982163   -1.4835649798   -1.4070807856
C       -0.1593894195   -0.6267230603   -0.5957045602
H        0.0347238730    0.1461266669    0.1365766852
H       -0.5620256958   -2.2351988179   -2.1185507507
C        0.4238299188    1.6832116086    1.5959374328
N        0.6368595398    2.5161485826    2.3888219786
6    
Image 1/11, Energy =  -169.0535113266 (+0.384 kcal/mol)
C       -0.3526225883   -1.4818919758   -1.3858204501
C       -0.2562946631   -0.5502402073   -0.6367513519
H       -0.1269561717    0.2643515698    0.0638990411
H       -0.4218687583   -2.3075910969   -2.0333161943
C        0.3818848621    1.6927961345    1.5667943917
N        0.7758573202    2.3825755740    2.4251945660
6    
Image 2/11, Energy =  -169.0521190813 (+1.257 kcal/mol)
C       -0.3265017176   -1.4767218683   -1.3554073085
C       -0.3319924584   -0.4959765840   -0.6658514214
H       -0.2700140759    0.3550216893   -0.0038100272
H       -0.2975263408   -2.3453545778   -1.9471126940
C        0.3282182082    1.7355651365    1.5382751761
N        0.8978163826    2.2274662109    2.4339062773
6    
Image 3/11, Energy =  -169.0501056655 (+2.521 kcal/mol)
C       -0.2989693496   -1.4566826151   -1.3135497697
C       -0.4044341027   -0.4381096138   -0.6903938543
H       -0.4070958548    0.4424241718   -0.0697524834
H       -0.1746822988   -2.3587379766   -1.8386611379
C        0.2939078262    1.7545321971    1.5110992524
N        0.9912737763    2.0565738417    2.4012579960
6    
Image 4/11, Energy =  -169.0460916117 (+5.039 kcal/mol)
C       -0.2562542484   -1.4118690163   -1.2351022164
C       -0.5093103022   -0.3587374253   -0.7238557572
H       -0.6191507886    0.5589470004   -0.1829442950
H        0.0093939738   -2.3411131271   -1.6476485436
C        0.2746629306    1.7728755026    1.4797095504
N        1.1006584332    1.7798970659    2.3098412617
6    
Image 5/11, Energy =  -169.0409680461 (+8.255 kcal/mol)
C       -0.2126060121   -1.3480219380   -1.1380898577
C       -0.6156690614   -0.2870657711   -0.7596883072
H       -0.8511903129    0.6527727285   -0.3222286027
H        0.1935126989   -2.2745568571   -1.4212875731
C        0.3040028123    1.7606165341    1.4559010533
N        1.1819498755    1.4962553024    2.1853932837
6    
Image 6/11, Energy =  -169.0355415458 (+11.660 kcal/mol)
C       -0.1770120476   -1.2646917964   -1.0391086157
C       -0.7166012129   -0.2261021512   -0.7981665197
H       -1.0828798424    0.7122012449   -0.4773510768
H        0.3582235668   -2.1567292834   -1.1841974086
C        0.3632545645    1.6759712526    1.4306017052
N        1.2550149738    1.2593507311    2.0682219105
6    
Image 7/11, Energy =  -169.0295941151 (+15.392 kcal/mol)
C       -0.1547322465   -1.1652864605   -0.9596081579
C       -0.7951909114   -0.1661162088   -0.8287044561
H       -1.2661954484    0.7494460722   -0.6056147106
H        0.4926075703   -1.9920161693   -0.9634592996
C        0.3922903901    1.4356398202    1.3606595032
N        1.3312206498    1.1383329423    1.9967271154
6    
Image 8/11, Energy =  -169.0168601051 (+23.383 kcal/mol)
C       -0.1710740096   -1.1178373793   -0.9489660552
C       -0.7659892663   -0.0967085992   -0.7554382696
H       -1.3164856152    0.7842176302   -0.6205876998
H        0.5604700911   -1.8586668756   -0.8209148254
C        0.4017760753    1.1584866262    1.1932840003
N        1.2913027284    1.1305085942    1.9526228442
6    
Image 9/11, Energy =  -168.9961655029 (+36.369 kcal/mol)
C       -0.2397730465   -1.1100254622   -1.0028463667
C       -0.6132267633    0.0032959291   -0.5444662717
H       -1.3197439327    0.7837597696   -0.6210665370
H        0.5751355932   -1.7457629487   -0.7288888120
C        0.4225963349    0.9073537849    1.0215470570
N        1.1750118185    1.1613789231    1.8757209247
6    
Image 10/11, Energy =  -169.0450280988 (+5.707 kcal/mol)
C       -0.2621557873   -1.0375649119   -0.9849831495
C       -0.4394249723    0.1449168038   -0.3146951308
H       -1.2367849815    0.8200926578   -0.5929396040
H        0.6029704544   -1.5857425957   -0.5513786397
C        0.3482144166    0.6332825823    0.7796719328
N        0.9871808701    1.0250154638    1.6643245913
